 Generated by Multiwfn
GAUSSIAN             65 MOL ORBITALS    434 PRIMITIVES       16 NUCLEI
  C    1    (CENTRE  1)   0.36802276 -0.10680963 -0.00056245  CHARGE =  6.0
  C    2    (CENTRE  2)  -0.85150797  2.22850749 -0.00026506  CHARGE =  6.0
  C    3    (CENTRE  3)  -3.48059886  2.28937292  0.00017577  CHARGE =  6.0
  N    4    (CENTRE  4)  -4.92044968  0.22286959  0.00037554  CHARGE =  7.0
  C    5    (CENTRE  5)  -3.74140817 -2.01176999  0.00011425  CHARGE =  6.0
  C    6    (CENTRE  6)  -1.13251645 -2.27375051 -0.00031996  CHARGE =  6.0
  C    7    (CENTRE  7)   3.20048160 -0.38619915 -0.00115276  CHARGE =  6.0
  O    8    (CENTRE  8)   4.14870873 -2.47327703  0.00069810  CHARGE =  8.0
  C    9    (CENTRE  9)   4.81744946  1.97095354  0.00034047  CHARGE =  6.0
  H   10    (CENTRE 10)   0.19393789  3.98602139 -0.00039187  CHARGE =  1.0
  H   11    (CENTRE 11)  -4.47130238  4.08582281  0.00040910  CHARGE =  1.0
  H   12    (CENTRE 12)  -4.94971443 -3.66910903  0.00027663  CHARGE =  1.0
  H   13    (CENTRE 13)  -0.24729647 -4.11685579 -0.00051721  CHARGE =  1.0
  H   14    (CENTRE 14)   4.42631428  3.12983862 -1.66437671  CHARGE =  1.0
  H   15    (CENTRE 15)   4.42451371  3.12925753  1.66506521  CHARGE =  1.0
  H   16    (CENTRE 16)   6.79749110  1.41932556  0.00133966  CHARGE =  1.0
CENTRE ASSIGNMENTS    1  1  1  1  1  1  1  1  1  1  1  1  1  1  1  1  1  1  1  1
CENTRE ASSIGNMENTS    1  1  1  1  1  1  1  1  1  1  1  1  1  1  1  1  1  1  1  1
CENTRE ASSIGNMENTS    1  1  2  2  2  2  2  2  2  2  2  2  2  2  2  2  2  2  2  2
CENTRE ASSIGNMENTS    2  2  2  2  2  2  2  2  2  2  2  2  2  2  2  2  2  2  2  2
CENTRE ASSIGNMENTS    2  2  2  2  3  3  3  3  3  3  3  3  3  3  3  3  3  3  3  3
CENTRE ASSIGNMENTS    3  3  3  3  3  3  3  3  3  3  3  3  3  3  3  3  3  3  3  3
CENTRE ASSIGNMENTS    3  3  3  3  3  3  4  4  4  4  4  4  4  4  4  4  4  4  4  4
CENTRE ASSIGNMENTS    4  4  4  4  4  4  4  4  4  4  4  4  4  4  4  4  4  4  4  4
CENTRE ASSIGNMENTS    4  4  4  4  4  4  4  4  5  5  5  5  5  5  5  5  5  5  5  5
CENTRE ASSIGNMENTS    5  5  5  5  5  5  5  5  5  5  5  5  5  5  5  5  5  5  5  5
CENTRE ASSIGNMENTS    5  5  5  5  5  5  5  5  5  5  6  6  6  6  6  6  6  6  6  6
CENTRE ASSIGNMENTS    6  6  6  6  6  6  6  6  6  6  6  6  6  6  6  6  6  6  6  6
CENTRE ASSIGNMENTS    6  6  6  6  6  6  6  6  6  6  6  6  7  7  7  7  7  7  7  7
CENTRE ASSIGNMENTS    7  7  7  7  7  7  7  7  7  7  7  7  7  7  7  7  7  7  7  7
CENTRE ASSIGNMENTS    7  7  7  7  7  7  7  7  7  7  7  7  7  7  8  8  8  8  8  8
CENTRE ASSIGNMENTS    8  8  8  8  8  8  8  8  8  8  8  8  8  8  8  8  8  8  8  8
CENTRE ASSIGNMENTS    8  8  8  8  8  8  8  8  8  8  8  8  8  8  8  8  9  9  9  9
CENTRE ASSIGNMENTS    9  9  9  9  9  9  9  9  9  9  9  9  9  9  9  9  9  9  9  9
CENTRE ASSIGNMENTS    9  9  9  9  9  9  9  9  9  9  9  9  9  9  9  9  9  9 10 10
CENTRE ASSIGNMENTS   10 10 10 10 10 10 11 11 11 11 11 11 11 11 12 12 12 12 12 12
CENTRE ASSIGNMENTS   12 12 13 13 13 13 13 13 13 13 14 14 14 14 14 14 14 14 15 15
CENTRE ASSIGNMENTS   15 15 15 15 15 15 16 16 16 16 16 16 16 16
TYPE ASSIGNMENTS      1  1  1  1  1  1  1  1  1  2  2  2  3  3  3  4  4  4  1  2
TYPE ASSIGNMENTS      3  4  1  2  3  4  1  2  3  4  5  6  7  8  9 10  5  6  7  8
TYPE ASSIGNMENTS      9 10  1  1  1  1  1  1  1  1  1  2  2  2  3  3  3  4  4  4
TYPE ASSIGNMENTS      1  2  3  4  1  2  3  4  1  2  3  4  5  6  7  8  9 10  5  6
TYPE ASSIGNMENTS      7  8  9 10  1  1  1  1  1  1  1  1  1  2  2  2  3  3  3  4
TYPE ASSIGNMENTS      4  4  1  2  3  4  1  2  3  4  1  2  3  4  5  6  7  8  9 10
TYPE ASSIGNMENTS      5  6  7  8  9 10  1  1  1  1  1  1  1  1  1  2  2  2  3  3
TYPE ASSIGNMENTS      3  4  4  4  1  2  3  4  1  2  3  4  1  2  3  4  5  6  7  8
TYPE ASSIGNMENTS      9 10  5  6  7  8  9 10  1  1  1  1  1  1  1  1  1  2  2  2
TYPE ASSIGNMENTS      3  3  3  4  4  4  1  2  3  4  1  2  3  4  1  2  3  4  5  6
TYPE ASSIGNMENTS      7  8  9 10  5  6  7  8  9 10  1  1  1  1  1  1  1  1  1  2
TYPE ASSIGNMENTS      2  2  3  3  3  4  4  4  1  2  3  4  1  2  3  4  1  2  3  4
TYPE ASSIGNMENTS      5  6  7  8  9 10  5  6  7  8  9 10  1  1  1  1  1  1  1  1
TYPE ASSIGNMENTS      1  2  2  2  3  3  3  4  4  4  1  2  3  4  1  2  3  4  1  2
TYPE ASSIGNMENTS      3  4  5  6  7  8  9 10  5  6  7  8  9 10  1  1  1  1  1  1
TYPE ASSIGNMENTS      1  1  1  2  2  2  3  3  3  4  4  4  1  2  3  4  1  2  3  4
TYPE ASSIGNMENTS      1  2  3  4  5  6  7  8  9 10  5  6  7  8  9 10  1  1  1  1
TYPE ASSIGNMENTS      1  1  1  1  1  2  2  2  3  3  3  4  4  4  1  2  3  4  1  2
TYPE ASSIGNMENTS      3  4  1  2  3  4  5  6  7  8  9 10  5  6  7  8  9 10  1  1
TYPE ASSIGNMENTS      1  1  1  2  3  4  1  1  1  1  1  2  3  4  1  1  1  1  1  2
TYPE ASSIGNMENTS      3  4  1  1  1  1  1  2  3  4  1  1  1  1  1  2  3  4  1  1
TYPE ASSIGNMENTS      1  1  1  2  3  4  1  1  1  1  1  2  3  4
EXPONENTS  0.4563240D+04 0.6820240D+03 0.1549730D+03 0.4445530D+02 0.1302900D+02
EXPONENTS  0.1827730D+01 0.2096420D+02 0.4803310D+01 0.1459330D+01 0.2096420D+02
EXPONENTS  0.4803310D+01 0.1459330D+01 0.2096420D+02 0.4803310D+01 0.1459330D+01
EXPONENTS  0.2096420D+02 0.4803310D+01 0.1459330D+01 0.4834560D+00 0.4834560D+00
EXPONENTS  0.4834560D+00 0.4834560D+00 0.1455850D+00 0.1455850D+00 0.1455850D+00
EXPONENTS  0.1455850D+00 0.4380000D-01 0.4380000D-01 0.4380000D-01 0.4380000D-01
EXPONENTS  0.1252000D+01 0.1252000D+01 0.1252000D+01 0.1252000D+01 0.1252000D+01
EXPONENTS  0.1252000D+01 0.3130000D+00 0.3130000D+00 0.3130000D+00 0.3130000D+00
EXPONENTS  0.3130000D+00 0.3130000D+00 0.4563240D+04 0.6820240D+03 0.1549730D+03
EXPONENTS  0.4445530D+02 0.1302900D+02 0.1827730D+01 0.2096420D+02 0.4803310D+01
EXPONENTS  0.1459330D+01 0.2096420D+02 0.4803310D+01 0.1459330D+01 0.2096420D+02
EXPONENTS  0.4803310D+01 0.1459330D+01 0.2096420D+02 0.4803310D+01 0.1459330D+01
EXPONENTS  0.4834560D+00 0.4834560D+00 0.4834560D+00 0.4834560D+00 0.1455850D+00
EXPONENTS  0.1455850D+00 0.1455850D+00 0.1455850D+00 0.4380000D-01 0.4380000D-01
EXPONENTS  0.4380000D-01 0.4380000D-01 0.1252000D+01 0.1252000D+01 0.1252000D+01
EXPONENTS  0.1252000D+01 0.1252000D+01 0.1252000D+01 0.3130000D+00 0.3130000D+00
EXPONENTS  0.3130000D+00 0.3130000D+00 0.3130000D+00 0.3130000D+00 0.4563240D+04
EXPONENTS  0.6820240D+03 0.1549730D+03 0.4445530D+02 0.1302900D+02 0.1827730D+01
EXPONENTS  0.2096420D+02 0.4803310D+01 0.1459330D+01 0.2096420D+02 0.4803310D+01
EXPONENTS  0.1459330D+01 0.2096420D+02 0.4803310D+01 0.1459330D+01 0.2096420D+02
EXPONENTS  0.4803310D+01 0.1459330D+01 0.4834560D+00 0.4834560D+00 0.4834560D+00
EXPONENTS  0.4834560D+00 0.1455850D+00 0.1455850D+00 0.1455850D+00 0.1455850D+00
EXPONENTS  0.4380000D-01 0.4380000D-01 0.4380000D-01 0.4380000D-01 0.1252000D+01
EXPONENTS  0.1252000D+01 0.1252000D+01 0.1252000D+01 0.1252000D+01 0.1252000D+01
EXPONENTS  0.3130000D+00 0.3130000D+00 0.3130000D+00 0.3130000D+00 0.3130000D+00
EXPONENTS  0.3130000D+00 0.6293480D+04 0.9490440D+03 0.2187760D+03 0.6369160D+02
EXPONENTS  0.1882820D+02 0.2720230D+01 0.3063310D+02 0.7026140D+01 0.2112050D+01
EXPONENTS  0.3063310D+02 0.7026140D+01 0.2112050D+01 0.3063310D+02 0.7026140D+01
EXPONENTS  0.2112050D+01 0.3063310D+02 0.7026140D+01 0.2112050D+01 0.6840090D+00
EXPONENTS  0.6840090D+00 0.6840090D+00 0.6840090D+00 0.2008780D+00 0.2008780D+00
EXPONENTS  0.2008780D+00 0.2008780D+00 0.6390000D-01 0.6390000D-01 0.6390000D-01
EXPONENTS  0.6390000D-01 0.1826000D+01 0.1826000D+01 0.1826000D+01 0.1826000D+01
EXPONENTS  0.1826000D+01 0.1826000D+01 0.4565000D+00 0.4565000D+00 0.4565000D+00
EXPONENTS  0.4565000D+00 0.4565000D+00 0.4565000D+00 0.4563240D+04 0.6820240D+03
EXPONENTS  0.1549730D+03 0.4445530D+02 0.1302900D+02 0.1827730D+01 0.2096420D+02
EXPONENTS  0.4803310D+01 0.1459330D+01 0.2096420D+02 0.4803310D+01 0.1459330D+01
EXPONENTS  0.2096420D+02 0.4803310D+01 0.1459330D+01 0.2096420D+02 0.4803310D+01
EXPONENTS  0.1459330D+01 0.4834560D+00 0.4834560D+00 0.4834560D+00 0.4834560D+00
EXPONENTS  0.1455850D+00 0.1455850D+00 0.1455850D+00 0.1455850D+00 0.4380000D-01
EXPONENTS  0.4380000D-01 0.4380000D-01 0.4380000D-01 0.1252000D+01 0.1252000D+01
EXPONENTS  0.1252000D+01 0.1252000D+01 0.1252000D+01 0.1252000D+01 0.3130000D+00
EXPONENTS  0.3130000D+00 0.3130000D+00 0.3130000D+00 0.3130000D+00 0.3130000D+00
EXPONENTS  0.4563240D+04 0.6820240D+03 0.1549730D+03 0.4445530D+02 0.1302900D+02
EXPONENTS  0.1827730D+01 0.2096420D+02 0.4803310D+01 0.1459330D+01 0.2096420D+02
EXPONENTS  0.4803310D+01 0.1459330D+01 0.2096420D+02 0.4803310D+01 0.1459330D+01
EXPONENTS  0.2096420D+02 0.4803310D+01 0.1459330D+01 0.4834560D+00 0.4834560D+00
EXPONENTS  0.4834560D+00 0.4834560D+00 0.1455850D+00 0.1455850D+00 0.1455850D+00
EXPONENTS  0.1455850D+00 0.4380000D-01 0.4380000D-01 0.4380000D-01 0.4380000D-01
EXPONENTS  0.1252000D+01 0.1252000D+01 0.1252000D+01 0.1252000D+01 0.1252000D+01
EXPONENTS  0.1252000D+01 0.3130000D+00 0.3130000D+00 0.3130000D+00 0.3130000D+00
EXPONENTS  0.3130000D+00 0.3130000D+00 0.4563240D+04 0.6820240D+03 0.1549730D+03
EXPONENTS  0.4445530D+02 0.1302900D+02 0.1827730D+01 0.2096420D+02 0.4803310D+01
EXPONENTS  0.1459330D+01 0.2096420D+02 0.4803310D+01 0.1459330D+01 0.2096420D+02
EXPONENTS  0.4803310D+01 0.1459330D+01 0.2096420D+02 0.4803310D+01 0.1459330D+01
EXPONENTS  0.4834560D+00 0.4834560D+00 0.4834560D+00 0.4834560D+00 0.1455850D+00
EXPONENTS  0.1455850D+00 0.1455850D+00 0.1455850D+00 0.4380000D-01 0.4380000D-01
EXPONENTS  0.4380000D-01 0.4380000D-01 0.1252000D+01 0.1252000D+01 0.1252000D+01
EXPONENTS  0.1252000D+01 0.1252000D+01 0.1252000D+01 0.3130000D+00 0.3130000D+00
EXPONENTS  0.3130000D+00 0.3130000D+00 0.3130000D+00 0.3130000D+00 0.8588500D+04
EXPONENTS  0.1297230D+04 0.2992960D+03 0.8737710D+02 0.2567890D+02 0.3740040D+01
EXPONENTS  0.4211750D+02 0.9628370D+01 0.2853320D+01 0.4211750D+02 0.9628370D+01
EXPONENTS  0.2853320D+01 0.4211750D+02 0.9628370D+01 0.2853320D+01 0.4211750D+02
EXPONENTS  0.9628370D+01 0.2853320D+01 0.9056610D+00 0.9056610D+00 0.9056610D+00
EXPONENTS  0.9056610D+00 0.2556110D+00 0.2556110D+00 0.2556110D+00 0.2556110D+00
EXPONENTS  0.8450000D-01 0.8450000D-01 0.8450000D-01 0.8450000D-01 0.2584000D+01
EXPONENTS  0.2584000D+01 0.2584000D+01 0.2584000D+01 0.2584000D+01 0.2584000D+01
EXPONENTS  0.6460000D+00 0.6460000D+00 0.6460000D+00 0.6460000D+00 0.6460000D+00
EXPONENTS  0.6460000D+00 0.4563240D+04 0.6820240D+03 0.1549730D+03 0.4445530D+02
EXPONENTS  0.1302900D+02 0.1827730D+01 0.2096420D+02 0.4803310D+01 0.1459330D+01
EXPONENTS  0.2096420D+02 0.4803310D+01 0.1459330D+01 0.2096420D+02 0.4803310D+01
EXPONENTS  0.1459330D+01 0.2096420D+02 0.4803310D+01 0.1459330D+01 0.4834560D+00
EXPONENTS  0.4834560D+00 0.4834560D+00 0.4834560D+00 0.1455850D+00 0.1455850D+00
EXPONENTS  0.1455850D+00 0.1455850D+00 0.4380000D-01 0.4380000D-01 0.4380000D-01
EXPONENTS  0.4380000D-01 0.1252000D+01 0.1252000D+01 0.1252000D+01 0.1252000D+01
EXPONENTS  0.1252000D+01 0.1252000D+01 0.3130000D+00 0.3130000D+00 0.3130000D+00
EXPONENTS  0.3130000D+00 0.3130000D+00 0.3130000D+00 0.3386500D+02 0.5094790D+01
EXPONENTS  0.1158790D+01 0.3258400D+00 0.1027410D+00 0.7500000D+00 0.7500000D+00
EXPONENTS  0.7500000D+00 0.3386500D+02 0.5094790D+01 0.1158790D+01 0.3258400D+00
EXPONENTS  0.1027410D+00 0.7500000D+00 0.7500000D+00 0.7500000D+00 0.3386500D+02
EXPONENTS  0.5094790D+01 0.1158790D+01 0.3258400D+00 0.1027410D+00 0.7500000D+00
EXPONENTS  0.7500000D+00 0.7500000D+00 0.3386500D+02 0.5094790D+01 0.1158790D+01
EXPONENTS  0.3258400D+00 0.1027410D+00 0.7500000D+00 0.7500000D+00 0.7500000D+00
EXPONENTS  0.3386500D+02 0.5094790D+01 0.1158790D+01 0.3258400D+00 0.1027410D+00
EXPONENTS  0.7500000D+00 0.7500000D+00 0.7500000D+00 0.3386500D+02 0.5094790D+01
EXPONENTS  0.1158790D+01 0.3258400D+00 0.1027410D+00 0.7500000D+00 0.7500000D+00
EXPONENTS  0.7500000D+00 0.3386500D+02 0.5094790D+01 0.1158790D+01 0.3258400D+00
EXPONENTS  0.1027410D+00 0.7500000D+00 0.7500000D+00 0.7500000D+00
MO    1     MO 0.0        OCC NO =    1.0000000  ORB. ENERGY =  -18.913327
 -0.80422166D-05 -0.14971333D-04 -0.24627702D-04 -0.33070870D-04 -0.31137471D-04
 -0.25587733D-05  0.44295147D-04  0.11770050D-03 -0.15866849D-06  0.35262044D-03
  0.32996586D-03  0.25557131D-03 -0.55479320D-04 -0.51914975D-04 -0.40210155D-04
 -0.40192689D-06 -0.37610454D-06 -0.29130750D-06 -0.10212220D-03 -0.51216345D-03
  0.16748365D-03  0.38980873D-06  0.32514735D-04  0.43532113D-04  0.24426095D-02
 -0.61187668D-06 -0.25247678D-03 -0.52665421D-04 -0.54623046D-05  0.21196975D-06
 -0.16809248D-03  0.73255392D-04  0.94837086D-04 -0.43998429D-03  0.34668132D-06
  0.83974368D-06 -0.12700152D-03  0.10413859D-03  0.22862937D-04  0.68345860D-03
  0.21574956D-06 -0.32079212D-06  0.55314509D-05  0.10297309D-04  0.16938977D-04
  0.22746203D-04  0.21416408D-04  0.17599288D-05 -0.23506918D-04 -0.62462283D-04
  0.84203521D-07  0.20200906D-03  0.18903071D-03  0.14641159D-03 -0.13035014D-03
 -0.12197561D-03 -0.94474826D-04 -0.19660424D-06 -0.18397313D-06 -0.14249430D-06
  0.30114366D-03 -0.10954891D-03  0.19288077D-04  0.13575639D-06 -0.23097019D-02
 -0.49450009D-03  0.72184136D-03  0.34808811D-06  0.23814107D-03 -0.20601091D-04
 -0.94461098D-05 -0.10219800D-06  0.14824546D-04  0.48326085D-04 -0.63150632D-04
 -0.29641251D-03  0.40164316D-07  0.69783229D-06 -0.18260350D-03  0.11186243D-03
  0.70741070D-04  0.53209585D-03  0.11372506D-06 -0.46263659D-06  0.31388329D-05
  0.58432288D-05  0.96120565D-05  0.12907379D-04  0.12152784D-04  0.99867513D-06
 -0.16428742D-04 -0.43654243D-04  0.58848969D-07 -0.13686325D-03 -0.12807028D-03
 -0.99195380D-04 -0.75629294D-04 -0.70770385D-04 -0.54814399D-04  0.13116435D-06
  0.12273752D-06  0.95064953D-07  0.98707103D-04  0.22668914D-03  0.65723723D-04
 -0.11956968D-06  0.33895560D-03 -0.54143752D-04 -0.25557046D-03 -0.44854558D-07
 -0.31037455D-03 -0.22704787D-04  0.21625670D-04  0.44125069D-07 -0.67583442D-04
  0.36586986D-04  0.30996456D-04  0.28539610D-04  0.56647095D-08 -0.56009821D-07
  0.75568529D-04 -0.49709763D-04 -0.25858767D-04  0.25441417D-03 -0.42562625D-07
  0.38032236D-07 -0.35343880D-06 -0.64962127D-06 -0.10617366D-05 -0.14252046D-05
 -0.13828051D-05 -0.13780434D-06  0.29612623D-05  0.80833515D-05 -0.91475474D-08
  0.16973801D-06  0.16695096D-06  0.12797455D-06  0.22322137D-04  0.21955615D-04
  0.16829851D-04  0.47634877D-07  0.46852727D-07  0.35914477D-07 -0.22765327D-04
 -0.10116193D-04 -0.43599391D-04 -0.47454171D-07 -0.49722368D-04 -0.25837472D-04
 -0.34452210D-03  0.94458666D-07  0.36818501D-04 -0.14577940D-05  0.15721855D-04
 -0.31868034D-07 -0.95006205D-06 -0.11204603D-04  0.12154665D-04  0.21194340D-03
 -0.11291346D-06 -0.10648616D-07  0.37954427D-05  0.26922265D-05 -0.64876692D-05
 -0.60780310D-04  0.69819428D-07  0.19327291D-07 -0.12372203D-05 -0.23032004D-05
 -0.37887430D-05 -0.50876460D-05 -0.47902105D-05 -0.39364349D-06  0.59215520D-05
  0.15734672D-04 -0.21211438D-07  0.95793888D-04  0.89639477D-04  0.69429240D-04
 -0.45552533D-04 -0.42625948D-04 -0.33015444D-04 -0.51842501D-07 -0.48511807D-07
 -0.37574270D-07 -0.23317525D-04 -0.12474121D-03  0.39254319D-05  0.51485905D-07
 -0.16504951D-03  0.42065094D-04 -0.27189817D-03 -0.92252121D-07  0.16281370D-03
  0.63291907D-05  0.18864997D-05  0.10342583D-07  0.55387637D-04 -0.60758163D-04
  0.53705269D-05  0.18087803D-05  0.14600724D-06  0.13574794D-08 -0.48406715D-04
  0.38335316D-04  0.10071400D-04  0.18947735D-03 -0.95015040D-08 -0.77975830D-07
 -0.72912511D-05 -0.13573341D-04 -0.22328018D-04 -0.29982781D-04 -0.28229918D-04
 -0.23198403D-05  0.35867967D-04  0.95307905D-04 -0.12848171D-06  0.27366385D-06
  0.25608194D-06  0.19834536D-06 -0.30231804D-05 -0.28289520D-05 -0.21911326D-05
  0.26235084D-06  0.24549575D-06  0.19014595D-06 -0.28692107D-03 -0.12247655D-03
 -0.18159776D-03 -0.21171917D-06  0.20242969D-02  0.62402425D-03  0.57868374D-03
  0.16899758D-06  0.42778372D-04  0.54334621D-04  0.68659374D-05 -0.63253599D-07
  0.72256822D-04 -0.11825008D-03  0.45993259D-04 -0.41167204D-03 -0.52889402D-06
 -0.53037554D-06  0.81199275D-04 -0.51702841D-04 -0.29496434D-04  0.20431825D-03
  0.59531643D-07  0.21443188D-06  0.18549954D-05  0.34532462D-05  0.56805575D-05
  0.76280353D-05  0.71820828D-05  0.59019955D-06 -0.14533142D-04 -0.38617279D-04
  0.52058790D-07  0.38491007D-03  0.36018099D-03  0.27897410D-03 -0.70563489D-03
 -0.66030040D-03 -0.51142818D-03 -0.15549847D-08 -0.14550825D-08 -0.11270177D-08
  0.33087394D-03 -0.41495522D-04 -0.21805122D-03  0.76205897D-06  0.25626614D-02
  0.37364967D-03 -0.24124804D-02  0.14424362D-05  0.60176208D-03  0.41715147D-04
  0.10912955D-03 -0.19953929D-06 -0.22864539D-03 -0.34435957D-03  0.57300496D-03
 -0.13536750D-03 -0.12219160D-05  0.39159328D-05  0.33682435D-03 -0.70651200D-04
 -0.26617315D-03  0.64715480D-03  0.53572881D-06 -0.16440208D-05  0.66423193D+00
  0.12216251D+01  0.19995386D+01  0.26946319D+01  0.26655648D+01  0.29668497D+00
  0.63024999D+00  0.16846869D+01 -0.24062348D-02 -0.25515465D-02 -0.26197893D-02
 -0.19798891D-02  0.58005160D-02  0.59556545D-02  0.45009481D-02 -0.52354372D-05
 -0.53754624D-05 -0.40624716D-05  0.10126827D-01 -0.29460806D-03  0.59660353D-03
 -0.10667500D-05 -0.50859059D-02  0.80225239D-03 -0.13807730D-02  0.82790484D-06
 -0.81129424D-03  0.83584918D-04 -0.18052177D-03  0.37555932D-06 -0.10302403D-02
  0.13950921D-02 -0.36485179D-03 -0.33578918D-02  0.91587988D-06 -0.24072091D-05
  0.68636345D-05 -0.35007339D-03  0.34320975D-03  0.71319972D-03 -0.45140240D-06
  0.64813817D-07 -0.12942510D-04 -0.24093684D-04 -0.39633884D-04 -0.53221654D-04
 -0.50110194D-04 -0.41178882D-05  0.66923665D-04  0.17782871D-03 -0.23972552D-06
  0.14080538D-03  0.13175915D-03  0.10205255D-03 -0.32535194D-03 -0.30444926D-03
 -0.23580772D-03 -0.23557358D-06 -0.22043883D-06 -0.17073840D-06 -0.23456693D-03
  0.17157435D-04  0.44568169D-03  0.26754444D-06  0.77050338D-03 -0.49406322D-03
 -0.56268032D-05 -0.91740746D-06 -0.46407499D-03  0.18388623D-04  0.34143054D-04
  0.16038548D-06 -0.81093981D-04  0.19750414D-04  0.61343566D-04 -0.60024016D-03
 -0.22494795D-05 -0.46661063D-06  0.22159447D-03 -0.26380437D-03  0.42209902D-04
  0.22239466D-03  0.80747269D-06 -0.72024383D-06 -0.17948081D-04 -0.32375778D-04
 -0.47730431D-04 -0.16683260D-03 -0.88008056D-04  0.13944444D-03  0.81240510D-04
  0.10224034D-06  0.67624437D-06  0.12198484D-05  0.17983780D-05  0.19138640D-03
 -0.45888780D-05 -0.41102628D-05 -0.85126702D-04 -0.45106622D-07  0.83498605D-06
  0.15061957D-05  0.22205295D-05 -0.20389363D-03 -0.52093277D-05 -0.50501182D-04
 -0.62177102D-04  0.79573955D-08  0.20371382D-04  0.36747066D-04  0.54174861D-04
 -0.68208978D-04  0.71504894D-04 -0.11939398D-03 -0.39873286D-04  0.50711874D-07
 -0.43193820D-05 -0.77915489D-05 -0.11486797D-04 -0.19747885D-04 -0.23782561D-04
  0.45450354D-05 -0.17083213D-04  0.18620547D-04 -0.43794321D-05 -0.78998708D-05
 -0.11646492D-04 -0.17799218D-04 -0.24202769D-04  0.47126664D-05 -0.16998073D-04
 -0.19192453D-04  0.86353124D-05  0.15576872D-04  0.22964415D-04 -0.10859454D-04
  0.21437184D-03  0.41339401D-05 -0.19301236D-03 -0.26964254D-06
MO    2     MO 0.0        OCC NO =    1.0000000  ORB. ENERGY =  -14.127270
 -0.87674364D-05 -0.16321397D-04 -0.26848544D-04 -0.36053089D-04 -0.33945342D-04
 -0.27895147D-05  0.51971646D-04  0.13809840D-03 -0.18616628D-06  0.79816602D-04
  0.74688674D-04  0.57849265D-04  0.47026977D-05  0.44005664D-05  0.34084088D-05
 -0.15659351D-07 -0.14653294D-07 -0.11349543D-07 -0.58413853D-03 -0.54049876D-05
 -0.24990470D-04 -0.63452737D-08  0.39965172D-02 -0.11645643D-02 -0.52643610D-04
  0.22918996D-06  0.34209410D-02  0.28595502D-03 -0.16484219D-03 -0.53195522D-07
  0.85853345D-04 -0.10470915D-03  0.18855809D-04 -0.20413488D-04  0.29670166D-07
 -0.99422882D-08  0.30236472D-03 -0.19047181D-03 -0.11189291D-03 -0.40976161D-04
 -0.16093036D-06 -0.45766939D-09  0.90974801D-06  0.16935804D-05  0.27859238D-05
  0.37410281D-05  0.35223189D-05  0.28945240D-06 -0.26188044D-05 -0.69586536D-05
  0.93807511D-08 -0.36437174D-03 -0.34096218D-03 -0.26408838D-03 -0.33614232D-03
 -0.31454639D-03 -0.24362834D-03  0.63683071D-07  0.59591664D-07  0.46156047D-07
  0.29482986D-03  0.52128625D-03  0.40869542D-03 -0.85976635D-07 -0.30771345D-02
  0.88788049D-03  0.14905764D-02 -0.10253125D-06 -0.79144641D-04 -0.10394799D-03
  0.12554103D-03  0.16589851D-07 -0.19941396D-03  0.12983177D-03  0.69582190D-04
  0.33998031D-03  0.13350600D-06 -0.10845860D-07 -0.71720160D-04 -0.36691735D-04
  0.10841190D-03 -0.77509473D-03  0.22996842D-07  0.10795263D-06  0.13069268D-04
  0.24329655D-04  0.40022054D-04  0.53742902D-04  0.50600968D-04  0.41582184D-05
 -0.13611175D-04 -0.36167439D-04  0.48756235D-07 -0.63123583D-03 -0.59068121D-03
 -0.45750543D-03 -0.58809846D-03 -0.55031526D-03 -0.42624044D-03  0.10880840D-06
  0.10181786D-06  0.78861866D-07  0.15577949D-03  0.23872273D-03  0.22588790D-04
 -0.51857485D-07  0.36460412D-02  0.52811429D-03 -0.14132064D-02 -0.10929012D-06
 -0.21847893D-03 -0.28082406D-04 -0.87763222D-04  0.32587257D-08 -0.17512557D-04
 -0.28595043D-03  0.30346299D-03 -0.29334773D-03  0.10097463D-06  0.80924411D-07
  0.41324590D-04  0.16229639D-03 -0.20362098D-03 -0.11646642D-02 -0.12062815D-06
  0.19573540D-06  0.55279045D+00  0.10160301D+01  0.16605926D+01  0.22290691D+01
  0.21627548D+01  0.21553073D+00  0.48360341D+00  0.13200912D+01 -0.14938849D-02
  0.56611894D-02  0.55682345D-02  0.42682730D-02 -0.34443454D-03 -0.33877903D-03
 -0.25968759D-03 -0.10370925D-05 -0.10200637D-05 -0.78191938D-06  0.99479064D-02
  0.59151542D-03 -0.12670797D-04 -0.98857315D-07 -0.58619824D-02 -0.19273463D-02
  0.13668546D-03  0.31831197D-06 -0.66927901D-03 -0.18072169D-04  0.56783260D-05
 -0.22022372D-08  0.46078668D-03  0.10887186D-02 -0.15495052D-02  0.91061540D-04
 -0.66595453D-06  0.13393577D-06 -0.58733028D-03  0.49355127D-04  0.53797515D-03
  0.94919452D-04  0.37526916D-06 -0.41753258D-07  0.13216204D-04  0.24603191D-04
  0.40472018D-04  0.54347128D-04  0.51169870D-04  0.42049688D-05 -0.15554128D-04
 -0.41330231D-04  0.55716039D-07 -0.54248514D-03 -0.50763244D-03 -0.39318094D-03
  0.64722679D-03  0.60564481D-03  0.46909531D-03  0.14474892D-06  0.13544933D-06
  0.10491074D-06  0.13727469D-03  0.20461668D-03 -0.25199683D-04 -0.67822568D-07
  0.37149528D-02  0.70446671D-03  0.13719636D-02 -0.65973047D-07  0.20170227D-03
  0.13025987D-04  0.10909610D-03  0.15252891D-07 -0.35456947D-06 -0.29175416D-03
  0.29210873D-03  0.17583702D-03  0.56355187D-07 -0.11707606D-06  0.18340352D-03
  0.28829266D-04 -0.21223279D-03  0.11517170D-02 -0.10088221D-06 -0.15618002D-06
  0.75763570D-06  0.14104092D-05  0.23201098D-05  0.31155181D-05  0.29333778D-05
  0.24105518D-06 -0.16034977D-05 -0.42607937D-05  0.57438475D-08 -0.29287091D-03
 -0.27405501D-03 -0.21226620D-03  0.38042506D-03  0.35598412D-03  0.27572346D-03
  0.61962799D-07  0.57981913D-07  0.44909233D-07  0.30792683D-03  0.43256709D-03
 -0.47427547D-03 -0.88940194D-07 -0.33486865D-02  0.64383895D-03 -0.16862697D-02
 -0.13614113D-06 -0.12308429D-02 -0.10251158D-03 -0.18829355D-03 -0.74418484D-08
 -0.24052192D-03  0.18825934D-03  0.52262584D-04 -0.22339260D-03  0.18346803D-06
 -0.12062961D-07  0.36875398D-04 -0.16356847D-03  0.12669307D-03  0.73300793D-03
  0.10509639D-07 -0.11659016D-06 -0.13186283D-05 -0.24547489D-05 -0.40380389D-05
 -0.54224086D-05 -0.51054021D-05 -0.41954488D-06  0.59106903D-05  0.15705811D-04
 -0.21172530D-07 -0.80382138D-04 -0.75217876D-04 -0.58259153D-04  0.48056567D-05
  0.44969107D-05  0.34830311D-05  0.42443597D-07  0.39716750D-07  0.30762158D-07
  0.24571251D-04  0.14653288D-03  0.11205670D-04 -0.83847004D-07 -0.16650963D-03
  0.28966895D-03  0.12112273D-03 -0.92944098D-07 -0.18837982D-02  0.22473908D-03
  0.28175743D-04 -0.41974238D-07  0.91008878D-04 -0.47613820D-04 -0.43395057D-04
 -0.24534386D-04 -0.19498330D-06 -0.26677937D-07 -0.15642704D-03  0.80280634D-04
  0.76146409D-04  0.95727438D-04  0.11938662D-06  0.14901615D-07  0.39802757D-07
  0.73203417D-07  0.11981831D-06  0.16147037D-06  0.15972859D-06  0.17778248D-07
  0.42543104D-05  0.11371966D-04 -0.16242555D-07 -0.51548622D-04 -0.52927323D-04
 -0.39999488D-04  0.31487683D-05  0.32329842D-05  0.24433073D-05  0.68307999D-07
  0.70134940D-07  0.53004036D-07 -0.31727125D-04  0.58009875D-04 -0.15029050D-04
 -0.55220796D-07  0.98999165D-04 -0.37846337D-04  0.82866339D-04 -0.37894345D-07
  0.82395244D-04 -0.28707699D-04 -0.34238758D-04 -0.22511316D-07  0.39355187D-04
 -0.88570587D-04  0.49215401D-04  0.31288351D-04 -0.78876314D-07  0.33345633D-06
 -0.23926511D-04  0.49742591D-04 -0.25816080D-04  0.13356334D-04 -0.18427227D-07
 -0.18284314D-06 -0.19438669D-06 -0.36186886D-06 -0.59527087D-06 -0.79934887D-06
 -0.75261709D-06 -0.61847557D-07  0.70469741D-06  0.18725130D-05 -0.25242783D-08
 -0.29153479D-04 -0.27280474D-04 -0.21129781D-04  0.13279575D-04  0.12426410D-04
  0.96247352D-05  0.28235884D-07  0.26421831D-07  0.20464729D-07 -0.64814773D-06
  0.39306529D-04  0.12666363D-04  0.15744967D-07 -0.16916307D-03  0.18591011D-04
  0.56743425D-04  0.23716859D-06 -0.59670325D-04 -0.12969241D-04  0.88128346D-05
  0.22179434D-07 -0.23873445D-05  0.68150824D-05 -0.44277378D-05 -0.36514163D-04
  0.13495268D-06  0.67798058D-07 -0.16723620D-05  0.48833488D-05 -0.32109867D-05
 -0.26858897D-04 -0.12335672D-06  0.74059515D-07  0.73932550D-04  0.13336377D-03
  0.19661335D-03 -0.31224864D-03 -0.51950494D-03  0.24805686D-03 -0.98556810D-04
 -0.31271959D-07 -0.89477308D-04 -0.16140430D-03 -0.23795248D-03 -0.52606365D-03
  0.52557212D-03  0.11447523D-03  0.71335661D-03  0.12016160D-07 -0.89801119D-04
 -0.16198841D-03 -0.23881361D-03 -0.53090092D-03  0.53709618D-03  0.12881905D-04
 -0.71977916D-03 -0.14869717D-07  0.74794791D-04  0.13491913D-03  0.19890636D-03
 -0.25954937D-03 -0.59331769D-03  0.22850039D-03  0.83538222D-04 -0.28472511D-07
  0.29604803D-05  0.53402841D-05  0.78729864D-05  0.39063043D-05  0.14337742D-04
  0.51953691D-05 -0.17613155D-04 -0.93954537D-05  0.29663195D-05  0.53508172D-05
  0.78885150D-05  0.35806579D-05  0.14056753D-04  0.52764805D-05 -0.17494089D-04
  0.95318704D-05 -0.40974015D-05 -0.73911278D-05 -0.10896471D-04  0.62308130D-05
  0.69419072D-05  0.17039892D-04  0.19224208D-04  0.26245708D-07
MO    3     MO 0.0        OCC NO =    1.0000000  ORB. ENERGY =  -10.057629
  0.11680568D-02  0.21744462D-02  0.35769436D-02  0.48032349D-02  0.45224268D-02
  0.37163791D-03  0.89286786D-03  0.23725171D-02 -0.31983188D-05  0.15640190D-02
  0.14635364D-02  0.11335655D-02 -0.17940952D-03 -0.16788310D-03 -0.13003195D-03
 -0.45333070D-06 -0.42420584D-06 -0.32856382D-06  0.10337179D-02 -0.10917505D-02
  0.20071033D-03  0.39884343D-06 -0.13644818D-02  0.16531857D-02  0.11618162D-02
 -0.19483555D-06  0.29992642D-02  0.62016515D-03  0.24835174D-02 -0.14986922D-06
  0.11535960D-02 -0.72370071D-03 -0.42989525D-03 -0.19249982D-03 -0.13086951D-05
 -0.35515355D-06 -0.18411227D-02  0.14713006D-02  0.36982211D-03  0.21838279D-03
  0.14510643D-05  0.42435481D-06 -0.52167681D-04 -0.97114981D-04 -0.15975323D-03
 -0.21452178D-03 -0.20198034D-03 -0.16598069D-04 -0.19716999D-05 -0.52391758D-05
  0.70627750D-08  0.47513941D-03  0.44461342D-03  0.34437028D-03 -0.15943639D-03
 -0.14919318D-03 -0.11555589D-03 -0.53779094D-07 -0.50323981D-07 -0.38977869D-07
 -0.46374445D-03 -0.61836486D-03  0.56547205D-03  0.98511994D-07  0.15581381D-03
 -0.93176365D-03 -0.16927306D-03  0.15891704D-06 -0.83710594D-02 -0.87380794D-03
  0.73254288D-03  0.20994008D-06  0.46469167D-04 -0.22201168D-03  0.17554251D-03
 -0.34135771D-03  0.29063951D-06  0.66798618D-07 -0.42751122D-03  0.59135902D-03
 -0.16384780D-03  0.20281645D-02 -0.92625073D-07 -0.31176746D-06 -0.10089132D-04
 -0.18781855D-04 -0.30895975D-04 -0.41488109D-04 -0.39062619D-04 -0.32100354D-05
 -0.98434890D-05 -0.26155993D-04  0.35260106D-07  0.16992253D-03  0.15900562D-03
  0.12315600D-03 -0.35124237D-03 -0.32867632D-03 -0.25457251D-03 -0.15092723D-07
 -0.14123070D-07 -0.10938864D-07  0.65414627D-04 -0.15873193D-03  0.42328407D-03
  0.15492761D-09  0.18874874D-03 -0.30981086D-03 -0.25581952D-03 -0.16157582D-07
 -0.14699034D-03 -0.73255751D-04 -0.20557470D-03 -0.24493921D-08 -0.13340361D-03
  0.16791351D-04  0.11661226D-03  0.19872665D-03 -0.33674063D-08 -0.12298138D-08
  0.13109648D-03 -0.43204023D-04 -0.87892460D-04  0.90028062D-03 -0.12964867D-06
 -0.16579606D-06 -0.15825445D-06 -0.29087202D-06 -0.47539926D-06 -0.63814435D-06
 -0.61915970D-06 -0.61702761D-07  0.25534718D-05  0.69702064D-05 -0.78878537D-08
 -0.15634862D-03 -0.15378142D-03 -0.11787957D-03  0.10590338D-04  0.10416448D-04
  0.79846211D-05 -0.48353277D-07 -0.47559331D-07 -0.36456117D-07 -0.13044145D-05
  0.81390968D-04 -0.11623238D-04  0.56580335D-07 -0.12236019D-02 -0.28118542D-03
 -0.21663439D-03  0.33300901D-07 -0.20499513D-03 -0.22465592D-04 -0.84025388D-04
  0.67511763D-07 -0.44955958D-04  0.25179440D-03 -0.20683844D-03  0.15744067D-03
 -0.13729863D-06  0.17297018D-06  0.18576407D-03 -0.32379156D-03  0.13802749D-03
 -0.11806133D-03  0.23752679D-07 -0.10247174D-06 -0.52158245D-04 -0.97097414D-04
 -0.15972433D-03 -0.21448297D-03 -0.20194380D-03 -0.16595067D-04 -0.22576740D-04
 -0.59990627D-04  0.80871556D-07  0.31989829D-03  0.29934599D-03  0.23185504D-03
  0.27389429D-03  0.25629757D-03  0.19851238D-03 -0.12475084D-06 -0.11673605D-06
 -0.90416584D-07 -0.13079350D-04 -0.41404286D-03 -0.35719557D-03  0.13538019D-06
 -0.14241970D-03 -0.99397240D-04 -0.10499397D-03 -0.20281858D-07 -0.97368010D-03
 -0.10422593D-04 -0.14979753D-03 -0.10895314D-06 -0.20571723D-03  0.56871712D-04
  0.14884552D-03 -0.14574500D-03  0.87671351D-07  0.72612069D-07 -0.49572985D-05
  0.57408150D-04 -0.52450851D-04 -0.75358515D-03  0.77756925D-08  0.41962845D-07