 Generated by Multiwfn
GAUSSIAN             63 MOL ORBITALS    434 PRIMITIVES       16 NUCLEI
  C    1    (CENTRE  1)   0.36802276 -0.10680963 -0.00056245  CHARGE =  6.0
  C    2    (CENTRE  2)  -0.85150797  2.22850749 -0.00026506  CHARGE =  6.0
  C    3    (CENTRE  3)  -3.48059886  2.28937292  0.00017577  CHARGE =  6.0
  N    4    (CENTRE  4)  -4.92044968  0.22286959  0.00037554  CHARGE =  7.0
  C    5    (CENTRE  5)  -3.74140817 -2.01176999  0.00011425  CHARGE =  6.0
  C    6    (CENTRE  6)  -1.13251645 -2.27375051 -0.00031996  CHARGE =  6.0
  C    7    (CENTRE  7)   3.20048160 -0.38619915 -0.00115276  CHARGE =  6.0
  O    8    (CENTRE  8)   4.14870873 -2.47327703  0.00069810  CHARGE =  8.0
  C    9    (CENTRE  9)   4.81744946  1.97095354  0.00034047  CHARGE =  6.0
  H   10    (CENTRE 10)   0.19393789  3.98602139 -0.00039187  CHARGE =  1.0
  H   11    (CENTRE 11)  -4.47130238  4.08582281  0.00040910  CHARGE =  1.0
  H   12    (CENTRE 12)  -4.94971443 -3.66910903  0.00027663  CHARGE =  1.0
  H   13    (CENTRE 13)  -0.24729647 -4.11685579 -0.00051721  CHARGE =  1.0
  H   14    (CENTRE 14)   4.42631428  3.12983862 -1.66437671  CHARGE =  1.0
  H   15    (CENTRE 15)   4.42451371  3.12925753  1.66506521  CHARGE =  1.0
  H   16    (CENTRE 16)   6.79749110  1.41932556  0.00133966  CHARGE =  1.0
CENTRE ASSIGNMENTS    1  1  1  1  1  1  1  1  1  1  1  1  1  1  1  1  1  1  1  1
CENTRE ASSIGNMENTS    1  1  1  1  1  1  1  1  1  1  1  1  1  1  1  1  1  1  1  1
CENTRE ASSIGNMENTS    1  1  2  2  2  2  2  2  2  2  2  2  2  2  2  2  2  2  2  2
CENTRE ASSIGNMENTS    2  2  2  2  2  2  2  2  2  2  2  2  2  2  2  2  2  2  2  2
CENTRE ASSIGNMENTS    2  2  2  2  3  3  3  3  3  3  3  3  3  3  3  3  3  3  3  3
CENTRE ASSIGNMENTS    3  3  3  3  3  3  3  3  3  3  3  3  3  3  3  3  3  3  3  3
CENTRE ASSIGNMENTS    3  3  3  3  3  3  4  4  4  4  4  4  4  4  4  4  4  4  4  4
CENTRE ASSIGNMENTS    4  4  4  4  4  4  4  4  4  4  4  4  4  4  4  4  4  4  4  4
CENTRE ASSIGNMENTS    4  4  4  4  4  4  4  4  5  5  5  5  5  5  5  5  5  5  5  5
CENTRE ASSIGNMENTS    5  5  5  5  5  5  5  5  5  5  5  5  5  5  5  5  5  5  5  5
CENTRE ASSIGNMENTS    5  5  5  5  5  5  5  5  5  5  6  6  6  6  6  6  6  6  6  6
CENTRE ASSIGNMENTS    6  6  6  6  6  6  6  6  6  6  6  6  6  6  6  6  6  6  6  6
CENTRE ASSIGNMENTS    6  6  6  6  6  6  6  6  6  6  6  6  7  7  7  7  7  7  7  7
CENTRE ASSIGNMENTS    7  7  7  7  7  7  7  7  7  7  7  7  7  7  7  7  7  7  7  7
CENTRE ASSIGNMENTS    7  7  7  7  7  7  7  7  7  7  7  7  7  7  8  8  8  8  8  8
CENTRE ASSIGNMENTS    8  8  8  8  8  8  8  8  8  8  8  8  8  8  8  8  8  8  8  8
CENTRE ASSIGNMENTS    8  8  8  8  8  8  8  8  8  8  8  8  8  8  8  8  9  9  9  9
CENTRE ASSIGNMENTS    9  9  9  9  9  9  9  9  9  9  9  9  9  9  9  9  9  9  9  9
CENTRE ASSIGNMENTS    9  9  9  9  9  9  9  9  9  9  9  9  9  9  9  9  9  9 10 10
CENTRE ASSIGNMENTS   10 10 10 10 10 10 11 11 11 11 11 11 11 11 12 12 12 12 12 12
CENTRE ASSIGNMENTS   12 12 13 13 13 13 13 13 13 13 14 14 14 14 14 14 14 14 15 15
CENTRE ASSIGNMENTS   15 15 15 15 15 15 16 16 16 16 16 16 16 16
TYPE ASSIGNMENTS      1  1  1  1  1  1  1  1  1  2  2  2  3  3  3  4  4  4  1  2
TYPE ASSIGNMENTS      3  4  1  2  3  4  1  2  3  4  5  6  7  8  9 10  5  6  7  8
TYPE ASSIGNMENTS      9 10  1  1  1  1  1  1  1  1  1  2  2  2  3  3  3  4  4  4
TYPE ASSIGNMENTS      1  2  3  4  1  2  3  4  1  2  3  4  5  6  7  8  9 10  5  6
TYPE ASSIGNMENTS      7  8  9 10  1  1  1  1  1  1  1  1  1  2  2  2  3  3  3  4
TYPE ASSIGNMENTS      4  4  1  2  3  4  1  2  3  4  1  2  3  4  5  6  7  8  9 10
TYPE ASSIGNMENTS      5  6  7  8  9 10  1  1  1  1  1  1  1  1  1  2  2  2  3  3
TYPE ASSIGNMENTS      3  4  4  4  1  2  3  4  1  2  3  4  1  2  3  4  5  6  7  8
TYPE ASSIGNMENTS      9 10  5  6  7  8  9 10  1  1  1  1  1  1  1  1  1  2  2  2
TYPE ASSIGNMENTS      3  3  3  4  4  4  1  2  3  4  1  2  3  4  1  2  3  4  5  6
TYPE ASSIGNMENTS      7  8  9 10  5  6  7  8  9 10  1  1  1  1  1  1  1  1  1  2
TYPE ASSIGNMENTS      2  2  3  3  3  4  4  4  1  2  3  4  1  2  3  4  1  2  3  4
TYPE ASSIGNMENTS      5  6  7  8  9 10  5  6  7  8  9 10  1  1  1  1  1  1  1  1
TYPE ASSIGNMENTS      1  2  2  2  3  3  3  4  4  4  1  2  3  4  1  2  3  4  1  2
TYPE ASSIGNMENTS      3  4  5  6  7  8  9 10  5  6  7  8  9 10  1  1  1  1  1  1
TYPE ASSIGNMENTS      1  1  1  2  2  2  3  3  3  4  4  4  1  2  3  4  1  2  3  4
TYPE ASSIGNMENTS      1  2  3  4  5  6  7  8  9 10  5  6  7  8  9 10  1  1  1  1
TYPE ASSIGNMENTS      1  1  1  1  1  2  2  2  3  3  3  4  4  4  1  2  3  4  1  2
TYPE ASSIGNMENTS      3  4  1  2  3  4  5  6  7  8  9 10  5  6  7  8  9 10  1  1
TYPE ASSIGNMENTS      1  1  1  2  3  4  1  1  1  1  1  2  3  4  1  1  1  1  1  2
TYPE ASSIGNMENTS      3  4  1  1  1  1  1  2  3  4  1  1  1  1  1  2  3  4  1  1
TYPE ASSIGNMENTS      1  1  1  2  3  4  1  1  1  1  1  2  3  4
EXPONENTS  0.4563240D+04 0.6820240D+03 0.1549730D+03 0.4445530D+02 0.1302900D+02
EXPONENTS  0.1827730D+01 0.2096420D+02 0.4803310D+01 0.1459330D+01 0.2096420D+02
EXPONENTS  0.4803310D+01 0.1459330D+01 0.2096420D+02 0.4803310D+01 0.1459330D+01
EXPONENTS  0.2096420D+02 0.4803310D+01 0.1459330D+01 0.4834560D+00 0.4834560D+00
EXPONENTS  0.4834560D+00 0.4834560D+00 0.1455850D+00 0.1455850D+00 0.1455850D+00
EXPONENTS  0.1455850D+00 0.4380000D-01 0.4380000D-01 0.4380000D-01 0.4380000D-01
EXPONENTS  0.1252000D+01 0.1252000D+01 0.1252000D+01 0.1252000D+01 0.1252000D+01
EXPONENTS  0.1252000D+01 0.3130000D+00 0.3130000D+00 0.3130000D+00 0.3130000D+00
EXPONENTS  0.3130000D+00 0.3130000D+00 0.4563240D+04 0.6820240D+03 0.1549730D+03
EXPONENTS  0.4445530D+02 0.1302900D+02 0.1827730D+01 0.2096420D+02 0.4803310D+01
EXPONENTS  0.1459330D+01 0.2096420D+02 0.4803310D+01 0.1459330D+01 0.2096420D+02
EXPONENTS  0.4803310D+01 0.1459330D+01 0.2096420D+02 0.4803310D+01 0.1459330D+01
EXPONENTS  0.4834560D+00 0.4834560D+00 0.4834560D+00 0.4834560D+00 0.1455850D+00
EXPONENTS  0.1455850D+00 0.1455850D+00 0.1455850D+00 0.4380000D-01 0.4380000D-01
EXPONENTS  0.4380000D-01 0.4380000D-01 0.1252000D+01 0.1252000D+01 0.1252000D+01
EXPONENTS  0.1252000D+01 0.1252000D+01 0.1252000D+01 0.3130000D+00 0.3130000D+00
EXPONENTS  0.3130000D+00 0.3130000D+00 0.3130000D+00 0.3130000D+00 0.4563240D+04
EXPONENTS  0.6820240D+03 0.1549730D+03 0.4445530D+02 0.1302900D+02 0.1827730D+01
EXPONENTS  0.2096420D+02 0.4803310D+01 0.1459330D+01 0.2096420D+02 0.4803310D+01
EXPONENTS  0.1459330D+01 0.2096420D+02 0.4803310D+01 0.1459330D+01 0.2096420D+02
EXPONENTS  0.4803310D+01 0.1459330D+01 0.4834560D+00 0.4834560D+00 0.4834560D+00
EXPONENTS  0.4834560D+00 0.1455850D+00 0.1455850D+00 0.1455850D+00 0.1455850D+00
EXPONENTS  0.4380000D-01 0.4380000D-01 0.4380000D-01 0.4380000D-01 0.1252000D+01
EXPONENTS  0.1252000D+01 0.1252000D+01 0.1252000D+01 0.1252000D+01 0.1252000D+01
EXPONENTS  0.3130000D+00 0.3130000D+00 0.3130000D+00 0.3130000D+00 0.3130000D+00
EXPONENTS  0.3130000D+00 0.6293480D+04 0.9490440D+03 0.2187760D+03 0.6369160D+02
EXPONENTS  0.1882820D+02 0.2720230D+01 0.3063310D+02 0.7026140D+01 0.2112050D+01
EXPONENTS  0.3063310D+02 0.7026140D+01 0.2112050D+01 0.3063310D+02 0.7026140D+01
EXPONENTS  0.2112050D+01 0.3063310D+02 0.7026140D+01 0.2112050D+01 0.6840090D+00
EXPONENTS  0.6840090D+00 0.6840090D+00 0.6840090D+00 0.2008780D+00 0.2008780D+00
EXPONENTS  0.2008780D+00 0.2008780D+00 0.6390000D-01 0.6390000D-01 0.6390000D-01
EXPONENTS  0.6390000D-01 0.1826000D+01 0.1826000D+01 0.1826000D+01 0.1826000D+01
EXPONENTS  0.1826000D+01 0.1826000D+01 0.4565000D+00 0.4565000D+00 0.4565000D+00
EXPONENTS  0.4565000D+00 0.4565000D+00 0.4565000D+00 0.4563240D+04 0.6820240D+03
EXPONENTS  0.1549730D+03 0.4445530D+02 0.1302900D+02 0.1827730D+01 0.2096420D+02
EXPONENTS  0.4803310D+01 0.1459330D+01 0.2096420D+02 0.4803310D+01 0.1459330D+01
EXPONENTS  0.2096420D+02 0.4803310D+01 0.1459330D+01 0.2096420D+02 0.4803310D+01
EXPONENTS  0.1459330D+01 0.4834560D+00 0.4834560D+00 0.4834560D+00 0.4834560D+00
EXPONENTS  0.1455850D+00 0.1455850D+00 0.1455850D+00 0.1455850D+00 0.4380000D-01
EXPONENTS  0.4380000D-01 0.4380000D-01 0.4380000D-01 0.1252000D+01 0.1252000D+01
EXPONENTS  0.1252000D+01 0.1252000D+01 0.1252000D+01 0.1252000D+01 0.3130000D+00
EXPONENTS  0.3130000D+00 0.3130000D+00 0.3130000D+00 0.3130000D+00 0.3130000D+00
EXPONENTS  0.4563240D+04 0.6820240D+03 0.1549730D+03 0.4445530D+02 0.1302900D+02
EXPONENTS  0.1827730D+01 0.2096420D+02 0.4803310D+01 0.1459330D+01 0.2096420D+02
EXPONENTS  0.4803310D+01 0.1459330D+01 0.2096420D+02 0.4803310D+01 0.1459330D+01
EXPONENTS  0.2096420D+02 0.4803310D+01 0.1459330D+01 0.4834560D+00 0.4834560D+00
EXPONENTS  0.4834560D+00 0.4834560D+00 0.1455850D+00 0.1455850D+00 0.1455850D+00
EXPONENTS  0.1455850D+00 0.4380000D-01 0.4380000D-01 0.4380000D-01 0.4380000D-01
EXPONENTS  0.1252000D+01 0.1252000D+01 0.1252000D+01 0.1252000D+01 0.1252000D+01
EXPONENTS  0.1252000D+01 0.3130000D+00 0.3130000D+00 0.3130000D+00 0.3130000D+00
EXPONENTS  0.3130000D+00 0.3130000D+00 0.4563240D+04 0.6820240D+03 0.1549730D+03
EXPONENTS  0.4445530D+02 0.1302900D+02 0.1827730D+01 0.2096420D+02 0.4803310D+01
EXPONENTS  0.1459330D+01 0.2096420D+02 0.4803310D+01 0.1459330D+01 0.2096420D+02
EXPONENTS  0.4803310D+01 0.1459330D+01 0.2096420D+02 0.4803310D+01 0.1459330D+01
EXPONENTS  0.4834560D+00 0.4834560D+00 0.4834560D+00 0.4834560D+00 0.1455850D+00
EXPONENTS  0.1455850D+00 0.1455850D+00 0.1455850D+00 0.4380000D-01 0.4380000D-01
EXPONENTS  0.4380000D-01 0.4380000D-01 0.1252000D+01 0.1252000D+01 0.1252000D+01
EXPONENTS  0.1252000D+01 0.1252000D+01 0.1252000D+01 0.3130000D+00 0.3130000D+00
EXPONENTS  0.3130000D+00 0.3130000D+00 0.3130000D+00 0.3130000D+00 0.8588500D+04
EXPONENTS  0.1297230D+04 0.2992960D+03 0.8737710D+02 0.2567890D+02 0.3740040D+01
EXPONENTS  0.4211750D+02 0.9628370D+01 0.2853320D+01 0.4211750D+02 0.9628370D+01
EXPONENTS  0.2853320D+01 0.4211750D+02 0.9628370D+01 0.2853320D+01 0.4211750D+02
EXPONENTS  0.9628370D+01 0.2853320D+01 0.9056610D+00 0.9056610D+00 0.9056610D+00
EXPONENTS  0.9056610D+00 0.2556110D+00 0.2556110D+00 0.2556110D+00 0.2556110D+00
EXPONENTS  0.8450000D-01 0.8450000D-01 0.8450000D-01 0.8450000D-01 0.2584000D+01
EXPONENTS  0.2584000D+01 0.2584000D+01 0.2584000D+01 0.2584000D+01 0.2584000D+01
EXPONENTS  0.6460000D+00 0.6460000D+00 0.6460000D+00 0.6460000D+00 0.6460000D+00
EXPONENTS  0.6460000D+00 0.4563240D+04 0.6820240D+03 0.1549730D+03 0.4445530D+02
EXPONENTS  0.1302900D+02 0.1827730D+01 0.2096420D+02 0.4803310D+01 0.1459330D+01
EXPONENTS  0.2096420D+02 0.4803310D+01 0.1459330D+01 0.2096420D+02 0.4803310D+01
EXPONENTS  0.1459330D+01 0.2096420D+02 0.4803310D+01 0.1459330D+01 0.4834560D+00
EXPONENTS  0.4834560D+00 0.4834560D+00 0.4834560D+00 0.1455850D+00 0.1455850D+00
EXPONENTS  0.1455850D+00 0.1455850D+00 0.4380000D-01 0.4380000D-01 0.4380000D-01
EXPONENTS  0.4380000D-01 0.1252000D+01 0.1252000D+01 0.1252000D+01 0.1252000D+01
EXPONENTS  0.1252000D+01 0.1252000D+01 0.3130000D+00 0.3130000D+00 0.3130000D+00
EXPONENTS  0.3130000D+00 0.3130000D+00 0.3130000D+00 0.3386500D+02 0.5094790D+01
EXPONENTS  0.1158790D+01 0.3258400D+00 0.1027410D+00 0.7500000D+00 0.7500000D+00
EXPONENTS  0.7500000D+00 0.3386500D+02 0.5094790D+01 0.1158790D+01 0.3258400D+00
EXPONENTS  0.1027410D+00 0.7500000D+00 0.7500000D+00 0.7500000D+00 0.3386500D+02
EXPONENTS  0.5094790D+01 0.1158790D+01 0.3258400D+00 0.1027410D+00 0.7500000D+00
EXPONENTS  0.7500000D+00 0.7500000D+00 0.3386500D+02 0.5094790D+01 0.1158790D+01
EXPONENTS  0.3258400D+00 0.1027410D+00 0.7500000D+00 0.7500000D+00 0.7500000D+00
EXPONENTS  0.3386500D+02 0.5094790D+01 0.1158790D+01 0.3258400D+00 0.1027410D+00
EXPONENTS  0.7500000D+00 0.7500000D+00 0.7500000D+00 0.3386500D+02 0.5094790D+01
EXPONENTS  0.1158790D+01 0.3258400D+00 0.1027410D+00 0.7500000D+00 0.7500000D+00
EXPONENTS  0.7500000D+00 0.3386500D+02 0.5094790D+01 0.1158790D+01 0.3258400D+00
EXPONENTS  0.1027410D+00 0.7500000D+00 0.7500000D+00 0.7500000D+00
MO    1     MO 0.0        OCC NO =    1.0000000  ORB. ENERGY =  -19.387925
 -0.81369404D-05 -0.15147670D-04 -0.24917774D-04 -0.33460389D-04 -0.31504218D-04
 -0.25889113D-05  0.45037740D-04  0.11967371D-03 -0.16132852D-06  0.35484133D-03
  0.33204406D-03  0.25718096D-03 -0.59444581D-04 -0.55625482D-04 -0.43084086D-04
 -0.40283428D-06 -0.37695363D-06 -0.29196516D-06 -0.10224209D-03 -0.51546434D-03
  0.17148999D-03  0.39192220D-06  0.13878583D-04  0.55863038D-04  0.24314328D-02
 -0.61251095D-06 -0.23229023D-03 -0.52244588D-04 -0.91431151D-05  0.21281490D-06
 -0.17357309D-03  0.79197381D-04  0.94375706D-04 -0.44522918D-03  0.33755796D-06
  0.83856414D-06 -0.12235954D-03  0.97100802D-04  0.25258742D-04  0.69585269D-03
  0.22293973D-06 -0.32093687D-06  0.56612440D-05  0.10538931D-04  0.17336443D-04
  0.23279933D-04  0.21918934D-04  0.18012248D-05 -0.24073010D-04 -0.63966496D-04
  0.86231305D-07  0.19964470D-03  0.18681825D-03  0.14469796D-03 -0.12741859D-03
 -0.11923241D-03 -0.92350106D-04 -0.19776517D-06 -0.18505947D-06 -0.14333571D-06
  0.30520737D-03 -0.10430570D-03  0.10454449D-04  0.13516365D-06 -0.22821975D-02
 -0.49578656D-03  0.70937875D-03  0.34731781D-06  0.24492349D-03 -0.22019633D-04
 -0.90977882D-05 -0.10166990D-06  0.15896688D-04  0.47218075D-04 -0.63114763D-04
 -0.30031079D-03  0.40988509D-07  0.69983200D-06 -0.18315824D-03  0.11294285D-03
  0.70215393D-04  0.52979615D-03  0.11196999D-06 -0.46298492D-06  0.32005999D-05
  0.59582138D-05  0.98012056D-05  0.13161374D-04  0.12391930D-04  0.10183274D-05
 -0.16704812D-04 -0.44387813D-04  0.59837872D-07 -0.13556245D-03 -0.12685305D-03
 -0.98252593D-04 -0.75016664D-04 -0.70197115D-04 -0.54370379D-04  0.13163059D-06
  0.12317380D-06  0.95402872D-07  0.99411706D-04  0.22529748D-03  0.64833739D-04
 -0.12038405D-06  0.33471339D-03 -0.56933595D-04 -0.25287811D-03 -0.44483946D-07
 -0.31267160D-03 -0.23470779D-04  0.20941656D-04  0.43943224D-07 -0.66593604D-04
  0.35589732D-04  0.31003872D-04  0.27878959D-04  0.52177689D-08 -0.56769881D-07
  0.75369701D-04 -0.49001436D-04 -0.26368265D-04  0.25469908D-03 -0.43437020D-07
  0.38580319D-07 -0.32641229D-06 -0.59994649D-06 -0.98054847D-06 -0.13162231D-05
 -0.12770657D-05 -0.12726681D-06  0.28814226D-05  0.78654132D-05 -0.89009169D-08
  0.57756915D-06  0.56808564D-06  0.43546022D-06  0.22102250D-04  0.21739338D-04
  0.16664066D-04  0.49174343D-07  0.48366916D-07  0.37075163D-07 -0.21623396D-04
 -0.10230030D-04 -0.43902928D-04 -0.47735632D-07 -0.51904167D-04 -0.27692135D-04
 -0.34429098D-03  0.95887621D-07  0.36649836D-04 -0.15243128D-05  0.14153965D-04
 -0.32239027D-07 -0.30342202D-06 -0.10460782D-04  0.10764204D-04  0.21009434D-03
 -0.11489471D-06 -0.86370967D-08  0.33789960D-05  0.20687533D-05 -0.54477492D-05
 -0.60359803D-04  0.71165939D-07  0.18252935D-07 -0.12980201D-05 -0.24163849D-05
 -0.39749304D-05 -0.53376644D-05 -0.50256122D-05 -0.41298801D-06  0.62235571D-05
  0.16537157D-04 -0.22293242D-07  0.94340218D-04  0.88279200D-04  0.68375652D-04
 -0.46949343D-04 -0.43933018D-04 -0.34027820D-04 -0.51849374D-07 -0.48518240D-07
 -0.37579252D-07 -0.26987345D-04 -0.12413388D-03  0.61906200D-05  0.51274905D-07
 -0.14539908D-03  0.52037211D-04 -0.26981885D-03 -0.94139835D-07  0.17187713D-03
  0.76485943D-05  0.14424546D-05  0.10726997D-07  0.52736781D-04 -0.59425275D-04
  0.66884940D-05  0.12074013D-05  0.14633806D-06  0.28489644D-08 -0.45706018D-04
  0.37319818D-04  0.83862002D-05  0.19173474D-03 -0.10346497D-07 -0.79530198D-07
 -0.73754693D-05 -0.13730121D-04 -0.22585919D-04 -0.30329099D-04 -0.28555990D-04
 -0.23466358D-05  0.36054648D-04  0.95803951D-04 -0.12915042D-06 -0.14465170D-05
 -0.13535835D-05 -0.10484027D-05 -0.26217563D-05 -0.24533180D-05 -0.19001896D-05
  0.26187646D-06  0.24505184D-06  0.18980212D-06 -0.28761414D-03 -0.11763657D-03
 -0.18370589D-03 -0.21216484D-06  0.20066313D-02  0.63296227D-03  0.57667759D-03
  0.16818458D-06  0.18763498D-04  0.56086044D-04  0.57007517D-05 -0.64669021D-07
  0.73980585D-04 -0.12040504D-03  0.46424459D-04 -0.41300521D-03 -0.53235615D-06
 -0.53055159D-06  0.82336323D-04 -0.53131435D-04 -0.29204889D-04  0.20892429D-03
  0.60542001D-07  0.21588492D-06  0.26630988D-05  0.49576057D-05  0.81552147D-05
  0.10951085D-04  0.10310859D-04  0.84731193D-06 -0.16334989D-04 -0.43405124D-04
  0.58513139D-07  0.38344895D-03  0.35881375D-03  0.27791512D-03 -0.70166090D-03
 -0.65658173D-03 -0.50854792D-03 -0.39555091D-08 -0.37013820D-08 -0.28668634D-08
  0.32291362D-03 -0.38676699D-04 -0.22569134D-03  0.76141982D-06  0.25641652D-02
  0.38071956D-03 -0.23997446D-02  0.14362461D-05  0.59794959D-03  0.43771501D-04
  0.11245873D-03 -0.20020989D-06 -0.24368988D-03 -0.33199735D-03  0.57568723D-03
 -0.16943449D-03 -0.12206274D-05  0.38992392D-05  0.33876040D-03 -0.67981913D-04
 -0.27077849D-03  0.66370416D-03  0.53814385D-06 -0.16550181D-05  0.66414093D+00
  0.12214577D+01  0.19992646D+01  0.26942627D+01  0.26651996D+01  0.29664433D+00
  0.63034395D+00  0.16849381D+01 -0.24065935D-02 -0.30484757D-02 -0.31300091D-02
 -0.23654845D-02  0.64149903D-02  0.65865633D-02  0.49777534D-02 -0.62137293D-05
 -0.63799195D-05 -0.48215836D-05  0.10142532D-01 -0.24418219D-03  0.54095333D-03
 -0.96430073D-06 -0.50843827D-02  0.79598519D-03 -0.13695040D-02  0.80912113D-06
 -0.80647964D-03  0.84481970D-04 -0.18168548D-03  0.37629389D-06  0.10196566D-02
  0.12747657D-02 -0.22944223D-02 -0.11045023D-02  0.22220232D-05 -0.39883597D-05
 -0.39551417D-04 -0.33994572D-03  0.37949713D-03  0.66644721D-03 -0.47209106D-06
  0.77906743D-07 -0.13272116D-04 -0.24707276D-04 -0.40643237D-04 -0.54577045D-04
 -0.51386346D-04 -0.42227581D-05  0.68065767D-04  0.18086349D-03 -0.24381662D-06
  0.13994545D-03  0.13095446D-03  0.10142929D-03 -0.33373723D-03 -0.31229582D-03
 -0.24188518D-03 -0.24889970D-06 -0.23290880D-06 -0.18039687D-06 -0.23836610D-03
  0.21973806D-04  0.45872519D-03  0.28287183D-06  0.75209059D-03 -0.49020671D-03
 -0.19586743D-05 -0.90229637D-06 -0.47205568D-03  0.18529221D-04  0.34685647D-04
  0.16095685D-06 -0.79454528D-04  0.15243085D-04  0.64211443D-04 -0.60449317D-03
 -0.22357950D-05 -0.45892638D-06  0.22230652D-03 -0.26498333D-03  0.42676806D-04
  0.22065783D-03  0.79152733D-06 -0.73123418D-06 -0.18270156D-04 -0.32956755D-04
 -0.48586943D-04 -0.16277084D-03 -0.83870113D-04  0.13861080D-03  0.79261574D-04
  0.10388866D-06  0.86112590D-06  0.15533483D-05  0.22900448D-05  0.18874586D-03
 -0.43748022D-05 -0.42357443D-05 -0.84562597D-04 -0.45228898D-07  0.65945667D-06
  0.11895657D-05  0.17537335D-05 -0.20398115D-03 -0.35519775D-05 -0.49998344D-04
 -0.63103848D-04  0.74822892D-08  0.20851154D-04  0.37612508D-04  0.55450750D-04
 -0.68904915D-04  0.71489637D-04 -0.12309234D-03 -0.39959205D-04  0.52227029D-07
 -0.45071583D-05 -0.81302705D-05 -0.11986162D-04 -0.18433009D-04 -0.23594127D-04
  0.45591165D-05 -0.15976042D-04  0.18097901D-04 -0.45665031D-05 -0.82373202D-05
 -0.12143981D-04 -0.16501607D-04 -0.24016318D-04  0.47398879D-05 -0.15875502D-04
 -0.18668868D-04  0.90597827D-05  0.16342556D-04  0.24093234D-04 -0.12378834D-04
  0.21460496D-03  0.52574356D-05 -0.19216656D-03 -0.26687697D-06
MO    2     MO 0.0        OCC NO =    1.0000000  ORB. ENERGY =  -14.566248
 -0.87834061D-05 -0.16351126D-04 -0.26897448D-04 -0.36118759D-04 -0.34007173D-04
 -0.27945958D-05  0.51871831D-04  0.13783317D-03 -0.18580874D-06  0.71437090D-04
  0.66847515D-04  0.51775984D-04  0.55263966D-05  0.51713456D-05  0.40054071D-05
 -0.13770592D-07 -0.12885882D-07 -0.99806134D-08 -0.57585637D-03  0.44633654D-05
 -0.26368137D-04 -0.81051835D-08  0.39154787D-02 -0.11415922D-02 -0.54670771D-04
  0.22693701D-06  0.34252273D-02  0.28419167D-03 -0.16580612D-03 -0.53085130D-07
  0.92182326D-04 -0.10765903D-03  0.15476702D-04 -0.20791738D-04  0.28960673D-07
 -0.97871723D-08  0.29027038D-03 -0.18354509D-03 -0.10672529D-03 -0.38795456D-04
 -0.15922856D-06 -0.65441910D-09  0.78667346D-06  0.14644657D-05  0.24090323D-05
  0.32349260D-05  0.30458048D-05  0.25029406D-06 -0.15150895D-05 -0.40258766D-05
  0.54271629D-08 -0.36915275D-03 -0.34543602D-03 -0.26755355D-03 -0.33998257D-03
 -0.31813992D-03 -0.24641166D-03  0.66914956D-07  0.62615912D-07  0.48498444D-07
  0.28601639D-03  0.53081967D-03  0.41689567D-03 -0.89652483D-07 -0.30446867D-02
  0.88821595D-03  0.14677221D-02 -0.10739848D-06 -0.73970812D-04 -0.10534187D-03
  0.12689990D-03  0.17512993D-07 -0.20520813D-03  0.12822966D-03  0.76978470D-04
  0.32633536D-03  0.13268073D-06 -0.13775629D-07 -0.76384939D-04 -0.27107119D-04
  0.10349206D-03 -0.76474998D-03  0.28590941D-07  0.11130267D-06  0.12750205D-04
  0.23735689D-04  0.39044986D-04  0.52430863D-04  0.49365634D-04  0.40567028D-05
 -0.11079533D-04 -0.29440395D-04  0.39687709D-07 -0.64011222D-03 -0.59898733D-03
 -0.46393884D-03 -0.59631921D-03 -0.55800786D-03 -0.43219865D-03  0.10626804D-06
  0.99440701D-07  0.77020667D-07  0.15508119D-03  0.26147946D-03  0.36543532D-04
 -0.49128662D-07  0.36376867D-02  0.53916553D-03 -0.14074533D-02 -0.10458195D-06
 -0.22295763D-03 -0.30712909D-04 -0.89880851D-04  0.26974747D-08 -0.19235453D-04
 -0.29434977D-03  0.31358523D-03 -0.31997288D-03  0.10004967D-06  0.97674105D-07
  0.38920313D-04  0.16233048D-03 -0.20125079D-03 -0.11749744D-02 -0.11578048D-06
  0.18607694D-06  0.55280863D+00  0.10160635D+01  0.16606472D+01  0.22291424D+01
  0.21628259D+01  0.21553782D+00  0.48360966D+00  0.13201082D+01 -0.14939042D-02
  0.35412741D-02  0.34831275D-02  0.26699557D-02 -0.27464007D-03 -0.27013057D-03
 -0.20706582D-03 -0.20865901D-05 -0.20523289D-05 -0.15731917D-05  0.99059657D-02
  0.76734039D-03 -0.15353895D-04 -0.44561811D-07 -0.58026898D-02 -0.19560759D-02
  0.13778672D-03  0.29937211D-06 -0.69789430D-03 -0.15669938D-04  0.57001220D-05
 -0.29013687D-09  0.17238470D-02  0.85985496D-03 -0.25837019D-02 -0.24935127D-04
  0.44636669D-06 -0.26210868D-08 -0.63278672D-03  0.79322524D-04  0.55346420D-03
  0.10298051D-03  0.33519138D-06 -0.36420571D-07  0.12962949D-04  0.24131734D-04
  0.39696475D-04  0.53305704D-04  0.50189329D-04  0.41243913D-05 -0.13470433D-04
 -0.35793463D-04  0.48252089D-07 -0.54887846D-03 -0.51361500D-03 -0.39781467D-03
  0.65412707D-03  0.61210177D-03  0.47409648D-03  0.14174473D-06  0.13263815D-06
  0.10273337D-06  0.13662581D-03  0.22396519D-03 -0.39214008D-04 -0.64914244D-07
  0.37044143D-02  0.71375380D-03  0.13643601D-02 -0.61162865D-07  0.19030806D-03
  0.99715838D-05  0.11188886D-03  0.14377997D-07  0.29331700D-06 -0.30037057D-03
  0.30007725D-03  0.19569535D-03  0.56039027D-07 -0.13497948D-06  0.18191908D-03
  0.27964917D-04 -0.20988399D-03  0.11597680D-02 -0.95619264D-07 -0.14648119D-06
  0.66569429D-06  0.12392517D-05  0.20385574D-05  0.27374405D-05  0.25774034D-05
  0.21180240D-06 -0.57801458D-06 -0.15358930D-05  0.20704910D-08 -0.29666297D-03
 -0.27760345D-03 -0.21501460D-03  0.38481989D-03  0.36009661D-03  0.27890874D-03
  0.64980763D-07  0.60805984D-07  0.47096585D-07  0.29946505D-03  0.44041787D-03
 -0.48321750D-03 -0.92520598D-07 -0.33158783D-02  0.64570139D-03 -0.16629644D-02
 -0.14019774D-06 -0.12300643D-02 -0.10684358D-03 -0.19004917D-03 -0.53541038D-08
 -0.24391062D-03  0.18485207D-03  0.59058545D-04 -0.20923507D-03  0.18239654D-06
 -0.98649433D-08  0.31328249D-04 -0.15323636D-03  0.12190811D-03  0.72472690D-03
  0.15184553D-07 -0.11965772D-06 -0.11921704D-05 -0.22193358D-05 -0.36507865D-05
 -0.49023936D-05 -0.46157884D-05 -0.37931006D-06  0.51002126D-05  0.13552220D-04
 -0.18269339D-07 -0.77362274D-04 -0.72392027D-04 -0.56070423D-04  0.40993173D-05
  0.38359510D-05  0.29710923D-05  0.41879439D-07  0.39188836D-07  0.30353269D-07
  0.28567421D-04  0.13753298D-03  0.12843955D-04 -0.81985217D-07 -0.16161525D-03
  0.28639540D-03  0.12223491D-03 -0.90177162D-07 -0.18764230D-02  0.22149855D-03
  0.26676916D-04 -0.42168521D-07  0.93181410D-04 -0.49224738D-04 -0.43956671D-04
 -0.23971830D-04 -0.19341234D-06 -0.26963749D-07 -0.15463221D-03  0.79500817D-04
  0.75131394D-04  0.94493486D-04  0.11500283D-06  0.16657230D-07  0.78080953D-08
  0.14360293D-07  0.23504724D-07  0.31675596D-07  0.31333911D-07  0.34875537D-08
  0.42109303D-05  0.11256008D-04 -0.16076933D-07 -0.51377416D-04 -0.52751538D-04
 -0.39866640D-04  0.18203728D-05  0.18690598D-05  0.14125301D-05  0.67043787D-07
  0.68836917D-07  0.52023063D-07 -0.31879320D-04  0.57549478D-04 -0.13719472D-04
 -0.53417823D-07  0.99966705D-04 -0.37347905D-04  0.82356343D-04 -0.38419232D-07
  0.79699946D-04 -0.27570214D-04 -0.33972630D-04 -0.22117388D-07  0.40433261D-04
 -0.88635516D-04  0.48202254D-04  0.32120776D-04 -0.76739215D-07  0.33010200D-06
 -0.24650731D-04  0.50115063D-04 -0.25464331D-04  0.12584944D-04 -0.18706459D-07
 -0.18164739D-06 -0.16499190D-06 -0.30714773D-06 -0.50525514D-06 -0.67847285D-06
 -0.63880776D-06 -0.52495087D-07  0.51585129D-06  0.13707135D-05 -0.18478175D-08
 -0.28735264D-04 -0.26889127D-04 -0.20826668D-04  0.13200624D-04  0.12352531D-04
  0.95675129D-05  0.27009760D-07  0.25274481D-07  0.19576062D-07  0.61349190D-06
  0.38647663D-04  0.12562013D-04  0.16485432D-07 -0.17100631D-03  0.20963330D-04
  0.56416066D-04  0.23516837D-06 -0.50987362D-04 -0.13126007D-04  0.80056244D-05
  0.21174608D-07 -0.19312500D-05  0.62647425D-05 -0.43334925D-05 -0.35110978D-04
  0.13465274D-06  0.67149064D-07 -0.20554765D-05  0.53240048D-05 -0.32685282D-05
 -0.27344135D-04 -0.12228232D-06  0.73582676D-07  0.72493464D-04  0.13076787D-03
  0.19278630D-03 -0.32187597D-03 -0.51029903D-03  0.25461021D-03 -0.89997036D-04
 -0.34593524D-07 -0.89799118D-04 -0.16198480D-03 -0.23880829D-03 -0.52689966D-03
  0.53044270D-03  0.10885139D-03  0.71085883D-03  0.18685833D-07 -0.89965769D-04
 -0.16228541D-03 -0.23925147D-03 -0.53055530D-03  0.54152084D-03  0.78659433D-05
 -0.71545108D-03 -0.86088448D-08  0.73438637D-04  0.13247282D-03  0.19529986D-03
 -0.26938202D-03 -0.58266401D-03  0.23409648D-03  0.74297152D-04 -0.32154149D-07
  0.29216698D-05  0.52702756D-05  0.77697754D-05  0.48012896D-05  0.14092204D-04
  0.54761928D-05 -0.17628376D-04 -0.94156005D-05  0.29277382D-05  0.52812220D-05
  0.77859132D-05  0.44765206D-05  0.13817097D-04  0.55571612D-05 -0.17510252D-04
  0.95506822D-05 -0.39848947D-05 -0.71881815D-05 -0.10597274D-04  0.55989360D-05
  0.56722657D-05  0.17184341D-04  0.19643601D-04  0.26552179D-07
MO    3     MO 0.0        OCC NO =    1.0000000  ORB. ENERGY =  -10.498833
  0.77962765D-03  0.14513492D-02  0.23874558D-02  0.32059525D-02  0.30185251D-02
  0.24805231D-03  0.56083894D-03  0.14902541D-02 -0.20089666D-05  0.15153445D-02
  0.14179891D-02  0.10982874D-02 -0.17521133D-03 -0.16395463D-03 -0.12698920D-03
 -0.42740999D-06 -0.39995045D-06 -0.30977708D-06  0.99781402D-03 -0.99604932D-03
  0.19284953D-03  0.34632834D-06 -0.11776387D-02  0.16737683D-02  0.11466721D-02
 -0.19236755D-06  0.27920913D-02  0.60451398D-03  0.24021495D-02 -0.14034673D-06
  0.11574510D-02 -0.72706585D-03 -0.43038519D-03 -0.18662813D-03 -0.12916125D-05
 -0.34499862D-06 -0.17687528D-02  0.14251805D-02  0.34357224D-03  0.18263839D-03
  0.13384609D-05  0.42151901D-06 -0.23254033D-04 -0.43289540D-04 -0.71210887D-04
 -0.95624269D-04 -0.90033854D-04 -0.73986812D-05  0.23376391D-04  0.62115448D-04
 -0.83735964D-07  0.46711949D-03  0.43710875D-03  0.33855762D-03 -0.15757662D-03
 -0.14745290D-03 -0.11420797D-03 -0.43669632D-07 -0.40864016D-07 -0.31650760D-07
 -0.46120926D-03 -0.61050022D-03  0.56001781D-03  0.91113688D-07  0.11741614D-03
 -0.91229338D-03 -0.15274841D-03  0.14583911D-06 -0.80682162D-02 -0.83945559D-03
  0.70491739D-03  0.20121227D-06  0.41326229D-04 -0.21443233D-03  0.17310610D-03
 -0.32582579D-03  0.25455578D-06  0.44604880D-07 -0.41136233D-03  0.56910585D-03
 -0.15774352D-03  0.19610930D-02 -0.73749014D-07 -0.28194837D-06  0.20836388D-06
  0.38788871D-06  0.63807328D-06  0.85682533D-06  0.80673335D-06  0.66294649D-07
 -0.25073065D-06 -0.66623828D-06  0.89813575D-09  0.16971369D-03  0.15881020D-03
  0.12300464D-03 -0.33815049D-03 -0.31642554D-03 -0.24508381D-03 -0.22559757D-07
 -0.21110374D-07 -0.16350801D-07  0.58670360D-04 -0.16175140D-03  0.40480986D-03
  0.10020289D-07  0.19565815D-03 -0.29661708D-03 -0.26146628D-03 -0.10999591D-07
 -0.12363620D-03 -0.69248601D-04 -0.19917621D-03 -0.27457676D-08 -0.13255933D-03
  0.18352274D-04  0.11420706D-03  0.19518596D-03 -0.38902387D-09 -0.55943302D-08
  0.12718031D-03 -0.41185257D-04 -0.85995050D-04  0.87112547D-03 -0.11751793D-06
 -0.16266680D-06 -0.11186589D-06 -0.20560974D-06 -0.33604716D-06 -0.45108736D-06
 -0.43766761D-06 -0.43616049D-07  0.19566949D-05  0.53411860D-05 -0.60443681D-08
 -0.15226082D-03 -0.14976075D-03 -0.11479756D-03  0.11096622D-04  0.10914419D-04
  0.83663359D-05 -0.47582259D-07 -0.46800974D-07 -0.35874806D-07  0.35250230D-05
  0.79263168D-04 -0.11425982D-04  0.52839562D-07 -0.12073224D-02 -0.28052625D-03
 -0.21275304D-03  0.33376103D-07 -0.20118591D-03 -0.21456542D-04 -0.81021214D-04
  0.62440200D-07 -0.42247680D-04  0.24282147D-03 -0.20057379D-03  0.15636414D-03
 -0.12181549D-06  0.16681133D-06  0.17979768D-03 -0.31423200D-03  0.13443431D-03
 -0.11780449D-03  0.17472290D-07 -0.99035151D-07 -0.12473973D-04 -0.23221458D-04
 -0.38199080D-04 -0.51294953D-04 -0.48296132D-04 -0.39688147D-05  0.10001025D-04
  0.26574596D-04 -0.35824412D-07  0.31125882D-03  0.29126157D-03  0.22559334D-03
  0.26493466D-03  0.24791356D-03  0.19201864D-03 -0.12934475D-06 -0.12103482D-06
 -0.93746145D-07 -0.89266612D-05 -0.39641173D-03 -0.34486939D-03  0.13979305D-06
 -0.13148919D-03 -0.92937620D-04 -0.97628996D-04 -0.15479106D-07 -0.98160150D-03
 -0.14050810D-04 -0.14452136D-03 -0.10090790D-06 -0.19763972D-03  0.52687570D-04
  0.14495215D-03 -0.14197767D-03  0.84683203D-07  0.75904482D-07 -0.41890908D-05
  0.55835933D-04 -0.51646842D-04 -0.73210473D-03  0.16473304D-07  0.41462262D-07