 Generated by Multiwfn
GAUSSIAN             32 MOL ORBITALS    434 PRIMITIVES       16 NUCLEI
  C    1    (CENTRE  1)   0.36802276 -0.10680963 -0.00056245  CHARGE =  6.0
  C    2    (CENTRE  2)  -0.85150797  2.22850749 -0.00026506  CHARGE =  6.0
  C    3    (CENTRE  3)  -3.48059886  2.28937292  0.00017577  CHARGE =  6.0
  N    4    (CENTRE  4)  -4.92044968  0.22286959  0.00037554  CHARGE =  7.0
  C    5    (CENTRE  5)  -3.74140817 -2.01176999  0.00011425  CHARGE =  6.0
  C    6    (CENTRE  6)  -1.13251645 -2.27375051 -0.00031996  CHARGE =  6.0
  C    7    (CENTRE  7)   3.20048160 -0.38619915 -0.00115276  CHARGE =  6.0
  O    8    (CENTRE  8)   4.14870873 -2.47327703  0.00069810  CHARGE =  8.0
  C    9    (CENTRE  9)   4.81744946  1.97095354  0.00034047  CHARGE =  6.0
  H   10    (CENTRE 10)   0.19393789  3.98602139 -0.00039187  CHARGE =  1.0
  H   11    (CENTRE 11)  -4.47130238  4.08582281  0.00040910  CHARGE =  1.0
  H   12    (CENTRE 12)  -4.94971443 -3.66910903  0.00027663  CHARGE =  1.0
  H   13    (CENTRE 13)  -0.24729647 -4.11685579 -0.00051721  CHARGE =  1.0
  H   14    (CENTRE 14)   4.42631428  3.12983862 -1.66437671  CHARGE =  1.0
  H   15    (CENTRE 15)   4.42451371  3.12925753  1.66506521  CHARGE =  1.0
  H   16    (CENTRE 16)   6.79749110  1.41932556  0.00133966  CHARGE =  1.0
CENTRE ASSIGNMENTS    1  1  1  1  1  1  1  1  1  1  1  1  1  1  1  1  1  1  1  1
CENTRE ASSIGNMENTS    1  1  1  1  1  1  1  1  1  1  1  1  1  1  1  1  1  1  1  1
CENTRE ASSIGNMENTS    1  1  2  2  2  2  2  2  2  2  2  2  2  2  2  2  2  2  2  2
CENTRE ASSIGNMENTS    2  2  2  2  2  2  2  2  2  2  2  2  2  2  2  2  2  2  2  2
CENTRE ASSIGNMENTS    2  2  2  2  3  3  3  3  3  3  3  3  3  3  3  3  3  3  3  3
CENTRE ASSIGNMENTS    3  3  3  3  3  3  3  3  3  3  3  3  3  3  3  3  3  3  3  3
CENTRE ASSIGNMENTS    3  3  3  3  3  3  4  4  4  4  4  4  4  4  4  4  4  4  4  4
CENTRE ASSIGNMENTS    4  4  4  4  4  4  4  4  4  4  4  4  4  4  4  4  4  4  4  4
CENTRE ASSIGNMENTS    4  4  4  4  4  4  4  4  5  5  5  5  5  5  5  5  5  5  5  5
CENTRE ASSIGNMENTS    5  5  5  5  5  5  5  5  5  5  5  5  5  5  5  5  5  5  5  5
CENTRE ASSIGNMENTS    5  5  5  5  5  5  5  5  5  5  6  6  6  6  6  6  6  6  6  6
CENTRE ASSIGNMENTS    6  6  6  6  6  6  6  6  6  6  6  6  6  6  6  6  6  6  6  6
CENTRE ASSIGNMENTS    6  6  6  6  6  6  6  6  6  6  6  6  7  7  7  7  7  7  7  7
CENTRE ASSIGNMENTS    7  7  7  7  7  7  7  7  7  7  7  7  7  7  7  7  7  7  7  7
CENTRE ASSIGNMENTS    7  7  7  7  7  7  7  7  7  7  7  7  7  7  8  8  8  8  8  8
CENTRE ASSIGNMENTS    8  8  8  8  8  8  8  8  8  8  8  8  8  8  8  8  8  8  8  8
CENTRE ASSIGNMENTS    8  8  8  8  8  8  8  8  8  8  8  8  8  8  8  8  9  9  9  9
CENTRE ASSIGNMENTS    9  9  9  9  9  9  9  9  9  9  9  9  9  9  9  9  9  9  9  9
CENTRE ASSIGNMENTS    9  9  9  9  9  9  9  9  9  9  9  9  9  9  9  9  9  9 10 10
CENTRE ASSIGNMENTS   10 10 10 10 10 10 11 11 11 11 11 11 11 11 12 12 12 12 12 12
CENTRE ASSIGNMENTS   12 12 13 13 13 13 13 13 13 13 14 14 14 14 14 14 14 14 15 15
CENTRE ASSIGNMENTS   15 15 15 15 15 15 16 16 16 16 16 16 16 16
TYPE ASSIGNMENTS      1  1  1  1  1  1  1  1  1  2  2  2  3  3  3  4  4  4  1  2
TYPE ASSIGNMENTS      3  4  1  2  3  4  1  2  3  4  5  6  7  8  9 10  5  6  7  8
TYPE ASSIGNMENTS      9 10  1  1  1  1  1  1  1  1  1  2  2  2  3  3  3  4  4  4
TYPE ASSIGNMENTS      1  2  3  4  1  2  3  4  1  2  3  4  5  6  7  8  9 10  5  6
TYPE ASSIGNMENTS      7  8  9 10  1  1  1  1  1  1  1  1  1  2  2  2  3  3  3  4
TYPE ASSIGNMENTS      4  4  1  2  3  4  1  2  3  4  1  2  3  4  5  6  7  8  9 10
TYPE ASSIGNMENTS      5  6  7  8  9 10  1  1  1  1  1  1  1  1  1  2  2  2  3  3
TYPE ASSIGNMENTS      3  4  4  4  1  2  3  4  1  2  3  4  1  2  3  4  5  6  7  8
TYPE ASSIGNMENTS      9 10  5  6  7  8  9 10  1  1  1  1  1  1  1  1  1  2  2  2
TYPE ASSIGNMENTS      3  3  3  4  4  4  1  2  3  4  1  2  3  4  1  2  3  4  5  6
TYPE ASSIGNMENTS      7  8  9 10  5  6  7  8  9 10  1  1  1  1  1  1  1  1  1  2
TYPE ASSIGNMENTS      2  2  3  3  3  4  4  4  1  2  3  4  1  2  3  4  1  2  3  4
TYPE ASSIGNMENTS      5  6  7  8  9 10  5  6  7  8  9 10  1  1  1  1  1  1  1  1
TYPE ASSIGNMENTS      1  2  2  2  3  3  3  4  4  4  1  2  3  4  1  2  3  4  1  2
TYPE ASSIGNMENTS      3  4  5  6  7  8  9 10  5  6  7  8  9 10  1  1  1  1  1  1
TYPE ASSIGNMENTS      1  1  1  2  2  2  3  3  3  4  4  4  1  2  3  4  1  2  3  4
TYPE ASSIGNMENTS      1  2  3  4  5  6  7  8  9 10  5  6  7  8  9 10  1  1  1  1
TYPE ASSIGNMENTS      1  1  1  1  1  2  2  2  3  3  3  4  4  4  1  2  3  4  1  2
TYPE ASSIGNMENTS      3  4  1  2  3  4  5  6  7  8  9 10  5  6  7  8  9 10  1  1
TYPE ASSIGNMENTS      1  1  1  2  3  4  1  1  1  1  1  2  3  4  1  1  1  1  1  2
TYPE ASSIGNMENTS      3  4  1  1  1  1  1  2  3  4  1  1  1  1  1  2  3  4  1  1
TYPE ASSIGNMENTS      1  1  1  2  3  4  1  1  1  1  1  2  3  4
EXPONENTS  0.4563240D+04 0.6820240D+03 0.1549730D+03 0.4445530D+02 0.1302900D+02
EXPONENTS  0.1827730D+01 0.2096420D+02 0.4803310D+01 0.1459330D+01 0.2096420D+02
EXPONENTS  0.4803310D+01 0.1459330D+01 0.2096420D+02 0.4803310D+01 0.1459330D+01
EXPONENTS  0.2096420D+02 0.4803310D+01 0.1459330D+01 0.4834560D+00 0.4834560D+00
EXPONENTS  0.4834560D+00 0.4834560D+00 0.1455850D+00 0.1455850D+00 0.1455850D+00
EXPONENTS  0.1455850D+00 0.4380000D-01 0.4380000D-01 0.4380000D-01 0.4380000D-01
EXPONENTS  0.1252000D+01 0.1252000D+01 0.1252000D+01 0.1252000D+01 0.1252000D+01
EXPONENTS  0.1252000D+01 0.3130000D+00 0.3130000D+00 0.3130000D+00 0.3130000D+00
EXPONENTS  0.3130000D+00 0.3130000D+00 0.4563240D+04 0.6820240D+03 0.1549730D+03
EXPONENTS  0.4445530D+02 0.1302900D+02 0.1827730D+01 0.2096420D+02 0.4803310D+01
EXPONENTS  0.1459330D+01 0.2096420D+02 0.4803310D+01 0.1459330D+01 0.2096420D+02
EXPONENTS  0.4803310D+01 0.1459330D+01 0.2096420D+02 0.4803310D+01 0.1459330D+01
EXPONENTS  0.4834560D+00 0.4834560D+00 0.4834560D+00 0.4834560D+00 0.1455850D+00
EXPONENTS  0.1455850D+00 0.1455850D+00 0.1455850D+00 0.4380000D-01 0.4380000D-01
EXPONENTS  0.4380000D-01 0.4380000D-01 0.1252000D+01 0.1252000D+01 0.1252000D+01
EXPONENTS  0.1252000D+01 0.1252000D+01 0.1252000D+01 0.3130000D+00 0.3130000D+00
EXPONENTS  0.3130000D+00 0.3130000D+00 0.3130000D+00 0.3130000D+00 0.4563240D+04
EXPONENTS  0.6820240D+03 0.1549730D+03 0.4445530D+02 0.1302900D+02 0.1827730D+01
EXPONENTS  0.2096420D+02 0.4803310D+01 0.1459330D+01 0.2096420D+02 0.4803310D+01
EXPONENTS  0.1459330D+01 0.2096420D+02 0.4803310D+01 0.1459330D+01 0.2096420D+02
EXPONENTS  0.4803310D+01 0.1459330D+01 0.4834560D+00 0.4834560D+00 0.4834560D+00
EXPONENTS  0.4834560D+00 0.1455850D+00 0.1455850D+00 0.1455850D+00 0.1455850D+00
EXPONENTS  0.4380000D-01 0.4380000D-01 0.4380000D-01 0.4380000D-01 0.1252000D+01
EXPONENTS  0.1252000D+01 0.1252000D+01 0.1252000D+01 0.1252000D+01 0.1252000D+01
EXPONENTS  0.3130000D+00 0.3130000D+00 0.3130000D+00 0.3130000D+00 0.3130000D+00
EXPONENTS  0.3130000D+00 0.6293480D+04 0.9490440D+03 0.2187760D+03 0.6369160D+02
EXPONENTS  0.1882820D+02 0.2720230D+01 0.3063310D+02 0.7026140D+01 0.2112050D+01
EXPONENTS  0.3063310D+02 0.7026140D+01 0.2112050D+01 0.3063310D+02 0.7026140D+01
EXPONENTS  0.2112050D+01 0.3063310D+02 0.7026140D+01 0.2112050D+01 0.6840090D+00
EXPONENTS  0.6840090D+00 0.6840090D+00 0.6840090D+00 0.2008780D+00 0.2008780D+00
EXPONENTS  0.2008780D+00 0.2008780D+00 0.6390000D-01 0.6390000D-01 0.6390000D-01
EXPONENTS  0.6390000D-01 0.1826000D+01 0.1826000D+01 0.1826000D+01 0.1826000D+01
EXPONENTS  0.1826000D+01 0.1826000D+01 0.4565000D+00 0.4565000D+00 0.4565000D+00
EXPONENTS  0.4565000D+00 0.4565000D+00 0.4565000D+00 0.4563240D+04 0.6820240D+03
EXPONENTS  0.1549730D+03 0.4445530D+02 0.1302900D+02 0.1827730D+01 0.2096420D+02
EXPONENTS  0.4803310D+01 0.1459330D+01 0.2096420D+02 0.4803310D+01 0.1459330D+01
EXPONENTS  0.2096420D+02 0.4803310D+01 0.1459330D+01 0.2096420D+02 0.4803310D+01
EXPONENTS  0.1459330D+01 0.4834560D+00 0.4834560D+00 0.4834560D+00 0.4834560D+00
EXPONENTS  0.1455850D+00 0.1455850D+00 0.1455850D+00 0.1455850D+00 0.4380000D-01
EXPONENTS  0.4380000D-01 0.4380000D-01 0.4380000D-01 0.1252000D+01 0.1252000D+01
EXPONENTS  0.1252000D+01 0.1252000D+01 0.1252000D+01 0.1252000D+01 0.3130000D+00
EXPONENTS  0.3130000D+00 0.3130000D+00 0.3130000D+00 0.3130000D+00 0.3130000D+00
EXPONENTS  0.4563240D+04 0.6820240D+03 0.1549730D+03 0.4445530D+02 0.1302900D+02
EXPONENTS  0.1827730D+01 0.2096420D+02 0.4803310D+01 0.1459330D+01 0.2096420D+02
EXPONENTS  0.4803310D+01 0.1459330D+01 0.2096420D+02 0.4803310D+01 0.1459330D+01
EXPONENTS  0.2096420D+02 0.4803310D+01 0.1459330D+01 0.4834560D+00 0.4834560D+00
EXPONENTS  0.4834560D+00 0.4834560D+00 0.1455850D+00 0.1455850D+00 0.1455850D+00
EXPONENTS  0.1455850D+00 0.4380000D-01 0.4380000D-01 0.4380000D-01 0.4380000D-01
EXPONENTS  0.1252000D+01 0.1252000D+01 0.1252000D+01 0.1252000D+01 0.1252000D+01
EXPONENTS  0.1252000D+01 0.3130000D+00 0.3130000D+00 0.3130000D+00 0.3130000D+00
EXPONENTS  0.3130000D+00 0.3130000D+00 0.4563240D+04 0.6820240D+03 0.1549730D+03
EXPONENTS  0.4445530D+02 0.1302900D+02 0.1827730D+01 0.2096420D+02 0.4803310D+01
EXPONENTS  0.1459330D+01 0.2096420D+02 0.4803310D+01 0.1459330D+01 0.2096420D+02
EXPONENTS  0.4803310D+01 0.1459330D+01 0.2096420D+02 0.4803310D+01 0.1459330D+01
EXPONENTS  0.4834560D+00 0.4834560D+00 0.4834560D+00 0.4834560D+00 0.1455850D+00
EXPONENTS  0.1455850D+00 0.1455850D+00 0.1455850D+00 0.4380000D-01 0.4380000D-01
EXPONENTS  0.4380000D-01 0.4380000D-01 0.1252000D+01 0.1252000D+01 0.1252000D+01
EXPONENTS  0.1252000D+01 0.1252000D+01 0.1252000D+01 0.3130000D+00 0.3130000D+00
EXPONENTS  0.3130000D+00 0.3130000D+00 0.3130000D+00 0.3130000D+00 0.8588500D+04
EXPONENTS  0.1297230D+04 0.2992960D+03 0.8737710D+02 0.2567890D+02 0.3740040D+01
EXPONENTS  0.4211750D+02 0.9628370D+01 0.2853320D+01 0.4211750D+02 0.9628370D+01
EXPONENTS  0.2853320D+01 0.4211750D+02 0.9628370D+01 0.2853320D+01 0.4211750D+02
EXPONENTS  0.9628370D+01 0.2853320D+01 0.9056610D+00 0.9056610D+00 0.9056610D+00
EXPONENTS  0.9056610D+00 0.2556110D+00 0.2556110D+00 0.2556110D+00 0.2556110D+00
EXPONENTS  0.8450000D-01 0.8450000D-01 0.8450000D-01 0.8450000D-01 0.2584000D+01
EXPONENTS  0.2584000D+01 0.2584000D+01 0.2584000D+01 0.2584000D+01 0.2584000D+01
EXPONENTS  0.6460000D+00 0.6460000D+00 0.6460000D+00 0.6460000D+00 0.6460000D+00
EXPONENTS  0.6460000D+00 0.4563240D+04 0.6820240D+03 0.1549730D+03 0.4445530D+02
EXPONENTS  0.1302900D+02 0.1827730D+01 0.2096420D+02 0.4803310D+01 0.1459330D+01
EXPONENTS  0.2096420D+02 0.4803310D+01 0.1459330D+01 0.2096420D+02 0.4803310D+01
EXPONENTS  0.1459330D+01 0.2096420D+02 0.4803310D+01 0.1459330D+01 0.4834560D+00
EXPONENTS  0.4834560D+00 0.4834560D+00 0.4834560D+00 0.1455850D+00 0.1455850D+00
EXPONENTS  0.1455850D+00 0.1455850D+00 0.4380000D-01 0.4380000D-01 0.4380000D-01
EXPONENTS  0.4380000D-01 0.1252000D+01 0.1252000D+01 0.1252000D+01 0.1252000D+01
EXPONENTS  0.1252000D+01 0.1252000D+01 0.3130000D+00 0.3130000D+00 0.3130000D+00
EXPONENTS  0.3130000D+00 0.3130000D+00 0.3130000D+00 0.3386500D+02 0.5094790D+01
EXPONENTS  0.1158790D+01 0.3258400D+00 0.1027410D+00 0.7500000D+00 0.7500000D+00
EXPONENTS  0.7500000D+00 0.3386500D+02 0.5094790D+01 0.1158790D+01 0.3258400D+00
EXPONENTS  0.1027410D+00 0.7500000D+00 0.7500000D+00 0.7500000D+00 0.3386500D+02
EXPONENTS  0.5094790D+01 0.1158790D+01 0.3258400D+00 0.1027410D+00 0.7500000D+00
EXPONENTS  0.7500000D+00 0.7500000D+00 0.3386500D+02 0.5094790D+01 0.1158790D+01
EXPONENTS  0.3258400D+00 0.1027410D+00 0.7500000D+00 0.7500000D+00 0.7500000D+00
EXPONENTS  0.3386500D+02 0.5094790D+01 0.1158790D+01 0.3258400D+00 0.1027410D+00
EXPONENTS  0.7500000D+00 0.7500000D+00 0.7500000D+00 0.3386500D+02 0.5094790D+01
EXPONENTS  0.1158790D+01 0.3258400D+00 0.1027410D+00 0.7500000D+00 0.7500000D+00
EXPONENTS  0.7500000D+00 0.3386500D+02 0.5094790D+01 0.1158790D+01 0.3258400D+00
EXPONENTS  0.1027410D+00 0.7500000D+00 0.7500000D+00 0.7500000D+00
MO    1     MO 0.0        OCC NO =    2.0000000  ORB. ENERGY =  -19.130376
 -0.78111288D-05 -0.14541141D-04 -0.23920041D-04 -0.32120600D-04 -0.30242756D-04
 -0.24852486D-05  0.43402850D-04  0.11532950D-03 -0.15547222D-06  0.34256889D-03
  0.32056007D-03  0.24828617D-03 -0.54849593D-04 -0.51325705D-04 -0.39753743D-04
 -0.39225943D-06 -0.36705818D-06 -0.28430075D-06 -0.99246245D-04 -0.49761430D-03
  0.16386721D-03  0.38252637D-06  0.21692838D-04  0.45972785D-04  0.23886393D-02
 -0.60218491D-06 -0.24949682D-03 -0.52129128D-04 -0.12398092D-04  0.20822304D-06
 -0.16579144D-03  0.73729802D-04  0.92061636D-04 -0.43049130D-03  0.33886413D-06
  0.82077454D-06 -0.12026811D-03  0.96686195D-04  0.23581911D-04  0.66880457D-03
  0.21249930D-06 -0.31211839D-06  0.54524456D-05  0.10150234D-04  0.16697039D-04
  0.22421321D-04  0.21110519D-04  0.17347919D-05 -0.23203225D-04 -0.61655315D-04
  0.83115671D-07  0.19611220D-03  0.18351270D-03  0.14213768D-03 -0.12659532D-03
 -0.11846203D-03 -0.91753423D-04 -0.19289142D-06 -0.18049885D-06 -0.13980333D-06
  0.29604755D-03 -0.10392738D-03  0.15633448D-04  0.13163682D-06 -0.22555087D-02
 -0.48024054D-03  0.70280371D-03  0.34042645D-06  0.25770102D-03 -0.18566361D-04
 -0.11112838D-04 -0.10056941D-06  0.15032677D-04  0.47101082D-04 -0.62133759D-04
 -0.29140432D-03  0.38247019D-07  0.68621482D-06 -0.17825967D-03  0.10914291D-03
  0.69116760D-04  0.51680205D-03  0.11055728D-06 -0.45304190D-06  0.30816878D-05
  0.57368479D-05  0.94370609D-05  0.12672389D-04  0.11931532D-04  0.98049341D-06
 -0.16124925D-04 -0.42846946D-04  0.57760676D-07 -0.13437057D-03 -0.12573775D-03
 -0.97388745D-04 -0.73212000D-04 -0.68508394D-04 -0.53062399D-04  0.12873544D-06
  0.12046465D-06  0.93304528D-07  0.96286196D-04  0.22218540D-03  0.63163843D-04
 -0.11770206D-06  0.33385722D-03 -0.51349391D-04 -0.24907689D-03 -0.44264110D-07
 -0.30583886D-03 -0.22324075D-04  0.21601466D-04  0.43228354D-07 -0.66103131D-04
  0.35723045D-04  0.30380086D-04  0.27528289D-04  0.50171179D-08 -0.54775586D-07
  0.74233794D-04 -0.48722162D-04 -0.25511632D-04  0.24775728D-03 -0.41943314D-07
  0.37568520D-07 -0.32866545D-06 -0.60408781D-06 -0.98731702D-06 -0.13253087D-05
 -0.12858811D-05 -0.12814531D-06  0.28914302D-05  0.78927309D-05 -0.89318311D-08
  0.35551493D-06  0.34967749D-06  0.26804169D-06  0.21972850D-04  0.21612063D-04
  0.16566505D-04  0.47987786D-07  0.47199842D-07  0.36180555D-07 -0.22025069D-04
 -0.98726463D-05 -0.42924189D-04 -0.46518913D-07 -0.46525730D-04 -0.25204270D-04
 -0.33695024D-03  0.93169027D-07  0.37127468D-04 -0.13120408D-05  0.15424915D-04
 -0.31400360D-07 -0.70214259D-06 -0.10988199D-04  0.11690341D-04  0.20721874D-03
 -0.11120803D-06 -0.94521086D-08  0.34134500D-05  0.27374496D-05 -0.61508996D-05
 -0.59355429D-04  0.68963889D-07  0.18434552D-07 -0.12294267D-05 -0.22886919D-05
 -0.37648766D-05 -0.50555974D-05 -0.47600356D-05 -0.39116381D-06  0.58806188D-05
  0.15625905D-04 -0.21064812D-07  0.93325347D-04  0.87329531D-04  0.67640097D-04
 -0.45448987D-04 -0.42529054D-04 -0.32940396D-04 -0.51294566D-07 -0.47999075D-07
 -0.37177139D-07 -0.23985399D-04 -0.12201574D-03  0.50498150D-05  0.50695373D-07
 -0.15770290D-03  0.43528845D-04 -0.26637136D-03 -0.91198996D-07  0.16847889D-03
  0.69467059D-05  0.21141540D-05  0.10235647D-07  0.53853410D-04 -0.59195642D-04
  0.53422314D-05  0.17205781D-05  0.14380071D-06  0.19505429D-08 -0.46576714D-04
  0.37092445D-04  0.94842687D-05  0.18719574D-03 -0.95934807D-08 -0.77314711D-07
 -0.71206803D-05 -0.13255807D-04 -0.21805679D-04 -0.29281367D-04 -0.27569510D-04
 -0.22655702D-05  0.34922249D-04  0.92794953D-04 -0.12509408D-06 -0.19092336D-05
 -0.17865723D-05 -0.13837693D-05 -0.37333400D-05 -0.34934864D-05 -0.27058402D-05
  0.25641319D-06  0.23993957D-06  0.18584247D-06 -0.27952113D-03 -0.11588816D-03
 -0.17577764D-03 -0.20830289D-06  0.19804521D-02  0.61375853D-03  0.56737294D-03
  0.16668268D-06  0.13353017D-04  0.53301030D-04  0.50926625D-05 -0.62456742D-07
  0.70758205D-04 -0.11556421D-03  0.44806008D-04 -0.40233018D-03 -0.52133176D-06
 -0.52234599D-06  0.80747065D-04 -0.51802339D-04 -0.28944726D-04  0.20383836D-03
  0.59461502D-07  0.21144334D-06  0.30899454D-05  0.57522202D-05  0.94623482D-05
  0.12706346D-04  0.11963503D-04  0.98312071D-06 -0.17875150D-04 -0.47497620D-04
  0.64030110D-07  0.37381173D-03  0.34979568D-03  0.27093027D-03 -0.68722737D-03
 -0.64307550D-03 -0.49808683D-03 -0.31316506D-08 -0.29304533D-08 -0.22697494D-08
  0.33231467D-03 -0.24850997D-04 -0.24313486D-03  0.76621690D-06  0.25365394D-02
  0.37230318D-03 -0.23659922D-02  0.14211725D-05  0.59601126D-03  0.41646015D-04
  0.10918060D-03 -0.19544743D-06 -0.23413936D-03 -0.32634783D-03  0.56048720D-03
 -0.15617724D-03 -0.11931717D-05  0.38090901D-05  0.32627481D-03 -0.62335457D-04
 -0.26393935D-03  0.63007035D-03  0.53105042D-06 -0.16241684D-05  0.66432451D+00
  0.12217954D+01  0.19998173D+01  0.26950074D+01  0.26659364D+01  0.29672632D+00
  0.63025402D+00  0.16846977D+01 -0.24062502D-02 -0.29271331D-02 -0.30054212D-02
 -0.22713280D-02  0.60443728D-02  0.62060335D-02  0.46901704D-02 -0.58918134D-05
 -0.60493937D-05 -0.45717909D-05  0.99459198D-02 -0.24312812D-03  0.54197109D-03
 -0.94436306D-06 -0.50149747D-02  0.78884941D-03 -0.13654883D-02  0.81454006D-06
 -0.80244858D-03  0.83338722D-04 -0.17840328D-03  0.36935046D-06 -0.57265247D-03
  0.18834487D-02 -0.13107963D-02 -0.34090855D-02  0.28037394D-05 -0.39166287D-05
  0.72853344D-05 -0.35933592D-03  0.35205058D-03  0.72315193D-03 -0.48253779D-06
  0.11282137D-06 -0.12758888D-04 -0.23751854D-04 -0.39071576D-04 -0.52466569D-04
 -0.49399253D-04 -0.40594654D-05  0.65750751D-04  0.17471206D-03 -0.23552406D-06
  0.13684521D-03  0.12805340D-03  0.99182307D-04 -0.31905778D-03 -0.29855947D-03
 -0.23124585D-03 -0.23386802D-06 -0.21884284D-06 -0.16950224D-06 -0.22985260D-03
  0.18792160D-04  0.43771425D-03  0.26664059D-06  0.74575542D-03 -0.48159507D-03
 -0.43533012D-05 -0.89358423D-06 -0.46212182D-03  0.18407171D-04  0.33902549D-04
  0.15776910D-06 -0.78724176D-04  0.18237996D-04  0.60486180D-04 -0.58550711D-03
 -0.22009420D-05 -0.45432505D-06  0.21642333D-03 -0.25725637D-03  0.40833041D-04
  0.21674050D-03  0.78602623D-06 -0.70412289D-06 -0.17570394D-04 -0.31694484D-04
 -0.46726023D-04 -0.16096981D-03 -0.85761306D-04  0.13551356D-03  0.78120766D-04
  0.10089525D-06  0.69754978D-06  0.12582803D-05  0.18550368D-05  0.18647694D-03
 -0.43052820D-05 -0.36917507D-05 -0.83233929D-04 -0.44137918D-07  0.78932354D-06
  0.14238271D-05  0.20990964D-05 -0.20024492D-03 -0.46334548D-05 -0.49029412D-04
 -0.61401488D-04  0.74831729D-08  0.20119893D-04  0.36293417D-04  0.53506064D-04
 -0.64963750D-04  0.70605004D-04 -0.11826678D-03 -0.38063254D-04  0.50437263D-07
 -0.43681706D-05 -0.78795565D-05 -0.11616543D-04 -0.16894265D-04 -0.22745434D-04
  0.39904723D-05 -0.17896112D-04  0.18656186D-04 -0.44271102D-05 -0.79858752D-05
 -0.11773285D-04 -0.14995139D-04 -0.23158962D-04  0.41584448D-05 -0.17807077D-04
 -0.19214171D-04  0.84612627D-05  0.15262911D-04  0.22501554D-04 -0.10736968D-04
  0.20991810D-03  0.45239283D-05 -0.18679982D-03 -0.26180602D-06
MO    2     MO 0.0        OCC NO =    2.0000000  ORB. ENERGY =  -14.327711
 -0.85179083D-05 -0.15856877D-04 -0.26084414D-04 -0.35026990D-04 -0.32979231D-04
 -0.27101230D-05  0.50131234D-04  0.13320807D-03 -0.17957379D-06  0.82986692D-04
  0.77655097D-04  0.60146874D-04  0.44282927D-05  0.41437909D-05  0.32095262D-05
 -0.16660951D-07 -0.15590545D-07 -0.12075480D-07 -0.56801432D-03 -0.13168800D-04
 -0.24181084D-04 -0.45265176D-08  0.39218591D-02 -0.11422964D-02 -0.52591737D-04
  0.22477412D-06  0.33472703D-02  0.27449988D-03 -0.16124873D-03 -0.50870630D-07
  0.86765678D-04 -0.10169871D-03  0.14933036D-04 -0.20320095D-04  0.26356551D-07
 -0.92377920D-08  0.29773841D-03 -0.18883737D-03 -0.10890103D-03 -0.40385291D-04
 -0.15830183D-06 -0.79858395D-09  0.10173722D-05  0.18939329D-05  0.31155017D-05
  0.41835960D-05  0.39390133D-05  0.32369495D-06 -0.25343672D-05 -0.67342881D-05
  0.90782908D-08 -0.35758566D-03 -0.33461207D-03 -0.25916999D-03 -0.33166294D-03
 -0.31035479D-03 -0.24038178D-03  0.62518394D-07  0.58501813D-07  0.45311916D-07
  0.29080422D-03  0.51119118D-03  0.40084799D-03 -0.84277659D-07 -0.30230169D-02
  0.87148272D-03  0.14628276D-02 -0.10034626D-06 -0.10243230D-03 -0.98517150D-04
  0.12317757D-03  0.15563525D-07 -0.19529674D-03  0.12874177D-03  0.66554971D-04
  0.33263586D-03  0.13053863D-06 -0.11089713D-07 -0.68240112D-04 -0.39865165D-04
  0.10810528D-03 -0.76398345D-03  0.22074665D-07  0.10633979D-06  0.13827427D-04
  0.25741039D-04  0.42343767D-04  0.56860572D-04  0.53536372D-04  0.43994401D-05
 -0.15633923D-04 -0.41542262D-04  0.56001871D-07 -0.61532948D-03 -0.57579679D-03
 -0.44597687D-03 -0.57331497D-03 -0.53648156D-03 -0.41552570D-03  0.10558040D-06
  0.98797241D-07  0.76522282D-07  0.15580206D-03  0.21692144D-03  0.46640381D-05
 -0.48387798D-07  0.36059366D-02  0.51497321D-03 -0.13928790D-02 -0.10723030D-06
 -0.19123034D-03 -0.24867094D-04 -0.86132414D-04  0.29976489D-08 -0.22285044D-04
 -0.27577110D-03  0.29805614D-03 -0.27102917D-03  0.99499845D-07  0.74860861D-07
  0.40237615D-04  0.16447835D-03 -0.20471597D-03 -0.11410981D-02 -0.12031081D-06
  0.19205621D-06  0.55287546D+00  0.10161863D+01  0.16608480D+01  0.22294119D+01
  0.21630874D+01  0.21556387D+00  0.48362044D+00  0.13201377D+01 -0.14939375D-02
  0.61834115D-02  0.60818818D-02  0.46620041D-02 -0.37771889D-03 -0.37151686D-03
 -0.28478244D-03 -0.92996579D-06 -0.91469604D-06 -0.70115086D-06  0.97562108D-02
  0.50214004D-03 -0.73053713D-05 -0.11102599D-06 -0.58001900D-02 -0.18982045D-02
  0.13487898D-03  0.31723549D-06 -0.67239129D-03 -0.21705277D-04  0.58217509D-05
 -0.21703539D-08  0.76267261D-03  0.14066254D-02 -0.21692980D-02  0.92965350D-04
 -0.99498805D-06  0.15963598D-06 -0.57983816D-03  0.33774139D-04  0.54606402D-03
  0.92035686D-04  0.37600636D-06 -0.41964834D-07  0.13952534D-04  0.25973937D-04
  0.42726882D-04  0.57375032D-04  0.54020756D-04  0.44392451D-05 -0.17611684D-04
 -0.46797543D-04  0.63086357D-07 -0.52856962D-03 -0.49461093D-03 -0.38309528D-03
  0.63055690D-03  0.59004590D-03  0.45701336D-03  0.14058470D-06  0.13155264D-06
  0.10189261D-06  0.13781360D-03  0.18565638D-03 -0.48677776D-05 -0.63496978D-07
  0.36724908D-02  0.68811821D-03  0.13530908D-02 -0.64387791D-07  0.21664120D-03
  0.15081219D-04  0.10667206D-03  0.14867380D-07 -0.73296936D-05 -0.27922341D-03
  0.28655311D-03  0.15813967D-03  0.55720608D-07 -0.11004865D-06  0.17948619D-03
  0.33634996D-04 -0.21312119D-03  0.11294909D-02 -0.10102184D-06 -0.15214397D-06
  0.87520194D-06  0.16292697D-05  0.26801333D-05  0.35989692D-05  0.33885651D-05
  0.27846096D-06 -0.15447556D-05 -0.41047048D-05  0.55334289D-08 -0.28724141D-03
 -0.26878719D-03 -0.20818606D-03  0.37542027D-03  0.35130087D-03  0.27209610D-03
  0.60982312D-07  0.57064419D-07  0.44198598D-07  0.30359789D-03  0.42408208D-03
 -0.46559369D-03 -0.87341296D-07 -0.32901081D-02  0.63074789D-03 -0.16553675D-02
 -0.13319844D-06 -0.12283534D-02 -0.97916327D-04 -0.18494471D-03 -0.80053905D-08
 -0.23538621D-03  0.18584639D-03  0.49539815D-04 -0.21795104D-03  0.18002692D-06
 -0.11318473D-07  0.38629577D-04 -0.16465052D-03  0.12602094D-03  0.72078797D-03
  0.95056920D-08 -0.11530300D-06 -0.13104966D-05 -0.24396110D-05 -0.40131372D-05
 -0.53889697D-05 -0.50739182D-05 -0.41695763D-06  0.57472350D-05  0.15271479D-04
 -0.20587021D-07 -0.78148173D-04 -0.73127435D-04 -0.56640025D-04  0.48999602D-05
  0.45851555D-05  0.35513801D-05  0.41335846D-07  0.38680167D-07  0.29959284D-07
  0.23169754D-04  0.14341000D-03  0.10685362D-04 -0.82041679D-07 -0.16206151D-03
  0.28417602D-03  0.11960045D-03 -0.91383405D-07 -0.18279125D-02  0.21901274D-03
  0.28090535D-04 -0.40636125D-07  0.89989268D-04 -0.47364156D-04 -0.42625112D-04
 -0.24208518D-04 -0.19178441D-06 -0.26870329D-07 -0.15314771D-03  0.79018232D-04
  0.74129479D-04  0.93954729D-04  0.11650589D-06  0.15377936D-07  0.55535110D-08
  0.10213764D-07  0.16717744D-07  0.22529281D-07  0.22286257D-07  0.24805240D-08
  0.41428980D-05  0.11074155D-04 -0.15817193D-07 -0.50699520D-04 -0.52055511D-04
 -0.39340622D-04  0.32221570D-05  0.33083356D-05  0.25002537D-05  0.67094543D-07
  0.68889030D-07  0.52062447D-07 -0.31214893D-04  0.57059964D-04 -0.14908720D-04
 -0.53408936D-07  0.96924479D-04 -0.37163500D-04  0.81126071D-04 -0.36288992D-07
  0.81341813D-04 -0.28289738D-04 -0.33384533D-04 -0.22183532D-07  0.39264496D-04
 -0.86920987D-04  0.47656491D-04  0.31472681D-04 -0.76660995D-07  0.32176029D-06
 -0.23786173D-04  0.48768344D-04 -0.24982171D-04  0.12882363D-04 -0.18803006D-07
 -0.17676335D-06 -0.19208340D-06 -0.35758107D-06 -0.58821750D-06 -0.78987738D-06
 -0.74369933D-06 -0.61114725D-07  0.68361366D-06  0.18164895D-05 -0.24487547D-08
 -0.28344024D-04 -0.26523023D-04 -0.20543107D-04  0.12657708D-04  0.11844496D-04
  0.91740198D-05  0.28177200D-07  0.26366916D-07  0.20422196D-07 -0.44297887D-06
  0.38382587D-04  0.12850324D-04  0.14956664D-07 -0.16765763D-03  0.18682952D-04
  0.55798673D-04  0.23292996D-06 -0.61155490D-04 -0.12415585D-04  0.87116307D-05
  0.21854095D-07 -0.22230626D-05  0.67937597D-05 -0.45706971D-05 -0.36123494D-04
  0.13254422D-06  0.67713321D-07 -0.17533226D-05  0.47488864D-05 -0.29955638D-05
 -0.26210719D-04 -0.12100462D-06  0.71455987D-07  0.72982685D-04  0.13165035D-03
  0.19408732D-03 -0.30154283D-03 -0.50910681D-03  0.24004261D-03 -0.98091930D-04
 -0.30390147D-07 -0.87913900D-04 -0.15858413D-03 -0.23379481D-03 -0.52409608D-03
  0.51608458D-03  0.11035453D-03  0.70343033D-03  0.12775701D-07 -0.88223857D-04
 -0.15914325D-03 -0.23461910D-03 -0.52848139D-03  0.52733520D-03  0.10454439D-04
 -0.70928663D-03 -0.13956404D-07  0.73805411D-04  0.13313443D-03  0.19627525D-03
 -0.25011424D-03 -0.58140423D-03  0.22085890D-03  0.83360791D-04 -0.27596867D-07
  0.28614458D-05  0.51616400D-05  0.76096178D-05  0.42290438D-05  0.14462487D-04
  0.48249327D-05 -0.17244252D-04 -0.89666271D-05  0.28674186D-05  0.51724141D-05
  0.76255018D-05  0.39105047D-05  0.14187659D-04  0.49049633D-05 -0.17127568D-04
  0.90992159D-05 -0.40040060D-05 -0.72226557D-05 -0.10648098D-04  0.65211880D-05
  0.64831385D-05  0.16502037D-04  0.18965122D-04  0.25127357D-07
MO    3     MO 0.0        OCC NO =    2.0000000  ORB. ENERGY =  -10.281336
  0.88831124D-03  0.16536738D-02  0.27202779D-02  0.36528767D-02  0.34393211D-02
  0.28263191D-03  0.65360201D-03  0.17367429D-02 -0.23412508D-05  0.15078376D-02
  0.14109644D-02  0.10928465D-02 -0.17275464D-03 -0.16165578D-03 -0.12520865D-03
 -0.42944850D-06 -0.40185799D-06 -0.31125454D-06  0.10004401D-02 -0.10013002D-02
  0.19021911D-03  0.34989177D-06 -0.12208938D-02  0.16604216D-02  0.11489575D-02
 -0.19041527D-06  0.28368373D-02  0.60835864D-03  0.24199037D-02 -0.14235907D-06
  0.11530360D-02 -0.72097429D-03 -0.43206173D-03 -0.19334257D-03 -0.12997574D-05
 -0.35793951D-06 -0.17680268D-02  0.14205504D-02  0.34747641D-03  0.19671905D-03
  0.13496339D-05  0.43154215D-06 -0.27455682D-04 -0.51111301D-04 -0.84077609D-04
 -0.11290212D-03 -0.10630160D-03 -0.87355101D-05  0.18384960D-04  0.48852282D-04
 -0.65856289D-07  0.46156619D-03  0.43191223D-03  0.33453272D-03 -0.15479538D-03
 -0.14485034D-03 -0.11219219D-03 -0.38465395D-07 -0.35994132D-07 -0.27878847D-07
 -0.45232775D-03 -0.60027226D-03  0.55060326D-03  0.84883537D-07  0.12262436D-03
 -0.91238194D-03 -0.15716427D-03  0.14601281D-06 -0.81187207D-02 -0.84823057D-03
  0.71013547D-03  0.20291716D-06  0.45097167D-04 -0.21522218D-03  0.17012502D-03
 -0.33416606D-03  0.25596934D-06  0.48122324D-07 -0.41533625D-03  0.57220352D-03
 -0.15686727D-03  0.19622177D-02 -0.77908263D-07 -0.28046022D-06  0.89296550D-07
  0.16623382D-06  0.27345306D-06  0.36720157D-06  0.34573412D-06  0.28411274D-07
 -0.11240782D-05 -0.29868861D-05  0.40265311D-08  0.16581865D-03  0.15516540D-03
  0.12018160D-03 -0.33873706D-03 -0.31697443D-03 -0.24550894D-03 -0.21036451D-07
 -0.19684935D-07 -0.15246743D-07  0.62851465D-04 -0.15363947D-03  0.40607441D-03
  0.74121721D-08  0.19127628D-03 -0.29840682D-03 -0.25739476D-03 -0.11596052D-07
 -0.14172489D-03 -0.71162779D-04 -0.19999026D-03 -0.22693918D-08 -0.12968293D-03
  0.16476909D-04  0.11320602D-03  0.19277877D-03 -0.33711516D-08 -0.35064067D-08
  0.12789420D-03 -0.42159432D-04 -0.85734766D-04  0.87305084D-03 -0.11936441D-06
 -0.16418327D-06 -0.10057303D-06 -0.18485345D-06 -0.30212322D-06 -0.40555012D-06
 -0.39348509D-06 -0.39213012D-07  0.21247764D-05  0.57999976D-05 -0.65635835D-08
 -0.15228932D-03 -0.14978878D-03 -0.11481905D-03  0.10551471D-04  0.10378219D-04
  0.79553175D-05 -0.48478879D-07 -0.47682871D-07 -0.36550815D-07  0.20309848D-05
  0.79395875D-04 -0.11541884D-04  0.53603956D-07 -0.11990433D-02 -0.27761390D-03
 -0.21308724D-03  0.32572160D-07 -0.19944124D-03 -0.21445343D-04 -0.81566025D-04
  0.63561440D-07 -0.42662128D-04  0.24296789D-03 -0.20030576D-03  0.15495011D-03
 -0.12261299D-06  0.17121383D-06  0.17995249D-03 -0.31397793D-03  0.13402544D-03
 -0.11571678D-03  0.17819092D-07 -0.10176289D-06 -0.16723993D-04 -0.31133265D-04
 -0.51213929D-04 -0.68771711D-04 -0.64751158D-04 -0.53210337D-05  0.68722815D-05
  0.18260939D-04 -0.24617021D-07  0.31244370D-03  0.29237032D-03  0.22645211D-03
  0.26351907D-03  0.24658892D-03  0.19099265D-03 -0.13084933D-06 -0.12244273D-06
 -0.94836628D-07 -0.11907725D-04 -0.40163771D-03 -0.34285101D-03  0.14202829D-06
 -0.13746920D-03 -0.93842418D-04 -0.99615539D-04 -0.16144214D-07 -0.98459685D-03
 -0.13693811D-04 -0.14533329D-03 -0.10303682D-06 -0.19879611D-03  0.54158075D-04
  0.14463804D-03 -0.14135410D-03  0.85532864D-07  0.76391852D-07 -0.47120220D-05
  0.55729099D-04 -0.51017077D-04 -0.72889217D-03  0.17615405D-07  0.39157707D-07